<UPF version="2.0.1">
 
<PP_INFO>
    Generated with atom program version:      atom 6.1.0
    https://github.com/jlm785/pseudopotential
    Author: Froyen,Troullier,Martins et al.
    Generation date:  10-Apr-26 
    Pseudopotential type:     Improved Troullier - Martinskb-loc=-1 
    Element: W 
    Functional: pb
    Suggested minimum cutoff for wavefunctions:    0.0000 Ry
    Suggested minimum cutoff for charge density:    0.0000 Ry
    The Pseudo was generated with a Relativistic Calculation
    Local component is maximum of all potentials (smoothed)
    Valence configuration:
    nl         occ            Rcut
    6s         2.0000         2.3900
    6p         0.0000         2.5900
    5d         4.0000         2.3900
    UPF generation configuration: not available
</PP_INFO>
 
<!--
END OF HUMAN READABLE SECTION
 -->
 
<PP_HEADER
  generated='Generated by atom version atom 6.1.0'
  author='Froyen,Troullier,Martins et al.'
  date='10-Apr-26 '
  comment='using beta code, beware'
  element='W '
  pseudo_type='NC'
  relativistic='full'
  is_ultrasoft='F'
  is_paw='F'
  is_coulomb='F'
  has_so='T'
  has_wfc='F'
  has_gipaw='F'
  paw_as_gipaw='F'
  core_correction='F'
  functional=' SLA  PW   PBX PBC'
  z_valence=' 0.600000000000000E+01'
  total_psenergy=' 0.000000000000000E+00'
  wfc_cutoff=' 0.000000000000000E+00'
  rho_cutoff=' 0.000000000000000E+00'
  l_max=' 2'
  l_max_rho='0'
  l_local='-1'
  mesh_size='   498'
  number_of_wfc=' 5'
  number_of_proj=' 5'
/>
 
<PP_MESH
  dx=' 0.250000000000000E-01'
  mesh='   498'
  xmin=' 0.400000000000000E+01'
  rmax=' 0.616168213297035E+02'
  zmesh=' 0.740000000000000E+02'
>
<PP_R columns='4'>
    0.247508633631543E-03     0.253774344522762E-03     0.260198672640364E-03     0.266785633398551E-03
    0.273539343862221E-03     0.280464025320267E-03     0.287564005924016E-03     0.294843723392470E-03
    0.302307727786022E-03     0.309960684350391E-03     0.317807376432556E-03     0.325852708470498E-03
    0.334101709058640E-03     0.342559534090878E-03     0.351231469983180E-03     0.360122936977777E-03
    0.369239492530981E-03     0.378586834786781E-03     0.388170806138371E-03     0.397997396879828E-03
    0.408072748950250E-03     0.418403159772661E-03     0.428995086190107E-03     0.439855148501398E-03
    0.450990134599001E-03     0.462407004211703E-03     0.474112893254663E-03     0.486115118289590E-03
    0.498421181097838E-03     0.511038773369258E-03     0.523975781509757E-03     0.537240291570558E-03
    0.550840594302246E-03     0.564785190336756E-03     0.579082795500543E-03     0.593742346262262E-03
    0.608773005318349E-03     0.624184167320001E-03     0.639985464745148E-03     0.656186773919054E-03
    0.672798221187351E-03     0.689830189245330E-03     0.707293323627465E-03     0.725198539361218E-03
    0.743557027789287E-03     0.762380263564559E-03     0.781680011822141E-03     0.801468335532956E-03
    0.821757603043486E-03     0.842560495806398E-03     0.863890016306859E-03     0.885759496189518E-03
    0.908182604591213E-03     0.931173356684630E-03     0.954746122438238E-03     0.978915635597993E-03
    0.100369700289640E-02     0.102910571349473E-02     0.105515764866423E-02     0.108186909171244E-02
    0.110925673816079E-02     0.113733770617987E-02     0.116612954728879E-02     0.119565025732550E-02
    0.122591828769476E-02     0.125695255690086E-02     0.128877246237229E-02     0.132139789258581E-02
    0.135484923949735E-02     0.138914741128765E-02     0.142431384543060E-02     0.146037052209229E-02
    0.149733997786938E-02     0.153524531987519E-02     0.157411024018239E-02     0.161395903063135E-02
    0.165481659801327E-02     0.169670847963780E-02     0.173966085929465E-02     0.178370058361933E-02
    0.182885517887314E-02     0.187515286814804E-02     0.192262258900694E-02     0.197129401157064E-02
    0.202119755706264E-02     0.207236441682336E-02     0.212482657180578E-02     0.217861681256455E-02
    0.223376875975117E-02     0.229031688512797E-02     0.234829653311412E-02     0.240774394287701E-02
    0.246869627098290E-02     0.253119161462104E-02     0.259526903541560E-02     0.266096858384046E-02
    0.272833132425210E-02     0.279739936055612E-02     0.286821586252356E-02     0.294082509277342E-02
    0.301527243443824E-02     0.309160441953003E-02     0.316986875802429E-02     0.325011436768030E-02
    0.333239140461630E-02     0.341675129465874E-02     0.350324676548502E-02     0.359193187958009E-02
    0.368286206802720E-02     0.377609416515415E-02     0.387168644405662E-02     0.396969865302072E-02
    0.407019205286760E-02     0.417322945524351E-02     0.427887526187910E-02     0.438719550484256E-02
    0.449825788781189E-02     0.461213182839181E-02     0.472888850150210E-02     0.484860088386421E-02
    0.497134379961409E-02     0.509719396706969E-02     0.522623004668245E-02     0.535853269020261E-02
    0.549418459108918E-02     0.563327053619606E-02     0.577587745876658E-02     0.592209449276958E-02
    0.607201302861110E-02     0.622572677025630E-02     0.638333179379750E-02     0.654492660750490E-02
    0.671061221339743E-02     0.688049217037229E-02     0.705467265893265E-02     0.723326254755392E-02
    0.741637346073009E-02     0.760411984874265E-02     0.779661905919577E-02     0.799399141036237E-02
    0.819636026638694E-02     0.840385211439217E-02     0.861659664353748E-02     0.883472682607902E-02
    0.905837900048161E-02     0.928769295663476E-02     0.952281202322586E-02     0.976388315732530E-02
    0.100110570362394E-01     0.102644881516888E-01     0.105243349063703E-01     0.107907597129646E-01
    0.110639290956484E-01     0.113440137941785E-01     0.116311888706089E-01     0.119256338187107E-01
    0.122275326761616E-01     0.125370741395750E-01     0.128544516824421E-01     0.131798636760586E-01
    0.135135135135135E-01     0.138556097368166E-01     0.142063661672436E-01     0.145660020389815E-01
    0.149347421361574E-01     0.153128169333355E-01     0.157004627395714E-01     0.160979218461129E-01
    0.165054426778401E-01     0.169232799485387E-01     0.173516948201046E-01     0.177909550657787E-01
    0.182413352375135E-01     0.187031168375777E-01     0.191765884945035E-01     0.196620461434892E-01
    0.201597932113685E-01     0.206701408062619E-01     0.211934079120293E-01     0.217299215876457E-01
    0.222800171716234E-01     0.228440384916094E-01     0.234223380792891E-01     0.240152773907303E-01
    0.246232270323042E-01     0.252465669923273E-01     0.258856868785662E-01     0.265409861617547E-01
    0.272128744252767E-01     0.279017716211688E-01     0.286081083326037E-01     0.293323260430195E-01
    0.300748774120604E-01     0.308362265585041E-01     0.316168493503513E-01     0.324172337022581E-01
    0.332378798804993E-01     0.340793008156507E-01     0.349420224231871E-01     0.358265839321974E-01
    0.367335382224195E-01     0.376634521698088E-01     0.386169070008536E-01     0.395944986558608E-01
    0.405968381614383E-01     0.416245520124058E-01     0.426782825633753E-01     0.437586884302428E-01
    0.448664449018452E-01     0.460022443620381E-01     0.471667967224573E-01     0.483608298662376E-01
    0.495850901029628E-01     0.508403426351339E-01     0.521273720364456E-01     0.534469827421700E-01
    0.547999995519551E-01     0.561872681453515E-01     0.576096556103894E-01     0.590680509855373E-01
    0.605633658153793E-01     0.620965347203607E-01     0.636685159809560E-01     0.652802921366254E-01
    0.669328705999340E-01     0.686272842862173E-01     0.703645922591872E-01     0.721458803928808E-01
    0.739722620503676E-01     0.758448787796373E-01     0.777649010271045E-01     0.797335288691759E-01
    0.817519927623372E-01     0.838215543122279E-01     0.859435070621870E-01     0.881191773017583E-01
    0.903499248956658E-01     0.926371441337727E-01     0.949822646025580E-01     0.973867520786550E-01
    0.998521094450088E-01     0.102379877630228E+00     0.104971636571713E+00     0.107629006203173E+00
    0.110353647467130E+00     0.113147263353071E+00     0.116011599961863E+00     0.118948447597130E+00
    0.121959641884245E+00     0.125047064917661E+00     0.128212646437277E+00     0.131458365034593E+00
    0.134786249389388E+00     0.138198379537716E+00     0.141696888171994E+00     0.145283961974005E+00
    0.148961842981643E+00     0.152732829990265E+00     0.156599279989505E+00     0.160563609636478E+00
    0.164628296766263E+00     0.168795881940633E+00     0.173068970035987E+00     0.177450231871487E+00
    0.181942405878401E+00     0.186548299811717E+00     0.191270792505079E+00     0.196112835670148E+00
    0.201077455741525E+00     0.206167755768367E+00     0.211386917353894E+00     0.216738202643996E+00
    0.222224956366176E+00     0.227850607920122E+00     0.233618673521184E+00     0.239532758398130E+00
    0.245596559046528E+00     0.251813865539176E+00     0.258188563895022E+00     0.264724638508054E+00
    0.271426174637671E+00     0.278297360962109E+00     0.285342492196495E+00     0.292565971777190E+00
    0.299972314614076E+00     0.307566149912523E+00     0.315352224066794E+00     0.323335403626691E+00
    0.331520678339316E+00     0.339913164267816E+00     0.348518106989095E+00     0.357340884872470E+00
    0.366387012441323E+00     0.375662143819860E+00     0.385172076267126E+00     0.394922753800472E+00
    0.404920270910771E+00     0.415170876371661E+00     0.425680977145242E+00     0.436457142386631E+00
    0.447506107549896E+00     0.458834778597940E+00     0.470450236318947E+00     0.482359740752107E+00
    0.494570735725379E+00     0.507090853508122E+00     0.519927919581515E+00     0.533089957529737E+00
    0.546585194054965E+00     0.560422064119335E+00     0.574609216217065E+00     0.589155517780047E+00
    0.604070060720282E+00     0.619362167112614E+00     0.635041395021342E+00     0.651117544474308E+00
    0.667600663588246E+00     0.684501054849171E+00     0.701829281551776E+00     0.719596174401833E+00
    0.737812838285733E+00     0.756490659211407E+00     0.775641311424949E+00     0.795276764707398E+00
    0.815409291856243E+00     0.836051476356323E+00     0.857216220244910E+00     0.878916752175906E+00
    0.901166635688179E+00     0.923979777683217E+00     0.947370437117404E+00     0.971353233914312E+00
    0.995943158102647E+00     0.102115557918550E+01     0.104700625574677E+01     0.107351134530083E+01
    0.110068741439146E+01     0.112855144894650E+01     0.115712086489460E+01     0.118641351905074E+01
    0.121644772027732E+01     0.124724224092781E+01     0.127881632858006E+01     0.131118971806667E+01
    0.134438264380992E+01     0.137841585246891E+01     0.141331061590695E+01     0.144908874448709E+01
    0.148577260070437E+01     0.152338511316310E+01     0.156194979090794E+01     0.160149073811788E+01
    0.164203266917209E+01     0.168360092409724E+01     0.172622148440579E+01     0.176992098933539E+01
    0.181472675249913E+01     0.186066677895755E+01     0.190776978272266E+01     0.195606520470515E+01
    0.200558323111590E+01     0.205635481233337E+01     0.210841168224858E+01     0.216178637809982E+01
    0.221651226080948E+01     0.227262353583575E+01     0.233015527455209E+01     0.238914343616801E+01
    0.244962489020475E+01     0.251163743953992E+01     0.257521984403554E+01     0.264041184476420E+01
    0.270725418884854E+01     0.277578865492950E+01     0.284605807927938E+01     0.291810638257587E+01
    0.299197859735388E+01     0.306772089615241E+01     0.314538062037382E+01     0.322500630987378E+01
    0.330664773330028E+01     0.339035591920060E+01     0.347618318791588E+01     0.356418318428296E+01
    0.365441091116423E+01     0.374692276382613E+01     0.384177656518812E+01     0.393903160196379E+01
    0.403874866171703E+01     0.414099007085628E+01     0.424581973359046E+01     0.435330317187131E+01
    0.446350756634661E+01     0.457650179835037E+01     0.469235649295588E+01     0.481114406311864E+01
    0.493293875493688E+01     0.505781669405773E+01     0.518585593325827E+01     0.531713650123103E+01
    0.545174045260453E+01     0.558975191923012E+01     0.573125716276709E+01     0.587634462859904E+01
    0.602510500111510E+01     0.617763126039066E+01     0.633401874030293E+01     0.649436518811769E+01
    0.665877082558455E+01     0.682733841157878E+01     0.700017330632894E+01     0.717738353727056E+01
    0.735907986656661E+01     0.754537586033765E+01     0.773638795964421E+01     0.793223555326634E+01
    0.813304105232544E+01     0.833892996679519E+01     0.855003098394938E+01     0.876647604879566E+01
    0.898840044654543E+01     0.921594288717156E+01     0.944924559210657E+01     0.968845438313567E+01
    0.993371877354019E+01     0.101851920615481E+02     0.104430314261507E+02     0.107073980253441E+02
    0.109784570968587E+02     0.112563780614380E+02     0.115413346287318E+02     0.118335049058709E+02
    0.121330715087894E+02     0.124402216763660E+02     0.127551473874538E+02     0.130780454808740E+02
    0.134091177784463E+02     0.137485712111339E+02     0.140966179483825E+02     0.144534755307326E+02
    0.148193670057900E+02     0.151945210676373E+02     0.155791721997755E+02     0.159735608216837E+02
    0.163779334390889E+02     0.167925427980405E+02     0.172176480428845E+02     0.176535148782373E+02
    0.181004157350597E+02     0.185586299409350E+02     0.190284438946581E+02     0.195101512452437E+02
    0.200040530754668E+02     0.205104580900494E+02     0.210296828086102E+02     0.215620517635007E+02
    0.221078977026477E+02     0.226675617975319E+02     0.232413938564314E+02     0.238297525430627E+02
    0.244330056007576E+02     0.250515300823148E+02     0.256857125856700E+02     0.263359494955321E+02
    0.270026472311368E+02     0.276862225002716E+02     0.283871025597321E+02     0.291057254823711E+02
    0.298425404309083E+02     0.305980079386718E+02     0.313726001974467E+02     0.321668013526098E+02
    0.329811078057365E+02     0.338160285248679E+02     0.346720853626325E+02     0.355498133824208E+02
    0.364497611928177E+02     0.373724912905005E+02     0.383185804118177E+02     0.392886198932679E+02
    0.402832160411044E+02     0.413029905102966E+02     0.423485806930841E+02     0.434206401173681E+02
    0.445198388551871E+02     0.456468639415342E+02     0.468024198037764E+02     0.479872287019439E+02
    0.492020311801670E+02     0.504475865295397E+02     0.517246732627014E+02     0.530340896004334E+02
    0.543766539705718E+02     0.557532055195520E+02     0.571646046369027E+02     0.586117334930172E+02
    0.600954965905386E+02     0.616168213297035E+02
</PP_R>
<PP_RAB columns='4'>
    0.618771584078857E-05     0.634435861306905E-05     0.650496681600910E-05     0.666964083496378E-05
    0.683848359655554E-05     0.701160063300667E-05     0.718910014810040E-05     0.737109308481175E-05
    0.755769319465054E-05     0.774901710875977E-05     0.794518441081389E-05     0.814631771176245E-05
    0.835254272646601E-05     0.856398835227194E-05     0.878078674957951E-05     0.900307342444442E-05
    0.923098731327452E-05     0.946467086966953E-05     0.970427015345927E-05     0.994993492199571E-05
    0.102018187237563E-04     0.104600789943165E-04     0.107248771547527E-04     0.109963787125349E-04
    0.112747533649750E-04     0.115601751052926E-04     0.118528223313666E-04     0.121528779572398E-04
    0.124605295274460E-04     0.127759693342315E-04     0.130993945377439E-04     0.134310072892640E-04
    0.137710148575562E-04     0.141196297584189E-04     0.144770698875136E-04     0.148435586565566E-04
    0.152193251329587E-04     0.156046041830000E-04     0.159996366186287E-04     0.164046693479763E-04
    0.168199555296838E-04     0.172457547311332E-04     0.176823330906866E-04     0.181299634840304E-04
    0.185889256947322E-04     0.190595065891140E-04     0.195420002955535E-04     0.200367083883239E-04
    0.205439400760872E-04     0.210640123951599E-04     0.215972504076715E-04     0.221439874047380E-04
    0.227045651147803E-04     0.232793339171157E-04     0.238686530609559E-04     0.244728908899498E-04
    0.250924250724101E-04     0.257276428373684E-04     0.263789412166058E-04     0.270467272928110E-04
    0.277314184540199E-04     0.284334426544968E-04     0.291532386822198E-04     0.298912564331376E-04
    0.306479571923691E-04     0.314238139225215E-04     0.322193115593073E-04     0.330349473146453E-04
    0.338712309874337E-04     0.347286852821913E-04     0.356078461357650E-04     0.365092630523072E-04
    0.374334994467344E-04     0.383811329968797E-04     0.393527560045598E-04     0.403489757657837E-04
    0.413704149503317E-04     0.424177119909450E-04     0.434915214823663E-04     0.445925145904832E-04
    0.457213794718286E-04     0.468788217037011E-04     0.480655647251735E-04     0.492823502892660E-04
    0.505299389265659E-04     0.518091104205840E-04     0.531206642951445E-04     0.544654203141138E-04
    0.558442189937792E-04     0.572579221281994E-04     0.587074133278531E-04     0.601935985719251E-04
    0.617174067745725E-04     0.632797903655260E-04     0.648817258853899E-04     0.665242145960115E-04
    0.682082831063025E-04     0.699349840139029E-04     0.717053965630889E-04     0.735206273193354E-04
    0.753818108609560E-04     0.772901104882509E-04     0.792467189506074E-04     0.812528591920075E-04
    0.833097851154076E-04     0.854187823664684E-04     0.875811691371255E-04     0.897982969895023E-04
    0.920715517006800E-04     0.944023541288538E-04     0.967921611014156E-04     0.992424663255179E-04
    0.101754801321690E-03     0.104330736381088E-03     0.106971881546977E-03     0.109679887621064E-03
    0.112456447195297E-03     0.115303295709795E-03     0.118222212537553E-03     0.121215022096605E-03
    0.124283594990352E-03     0.127429849176742E-03     0.130655751167061E-03     0.133963317255065E-03
    0.137354614777229E-03     0.140831763404902E-03     0.144396936469164E-03     0.148052362319240E-03
    0.151800325715278E-03     0.155643169256407E-03     0.159583294844937E-03     0.163623165187623E-03
    0.167765305334936E-03     0.172012304259307E-03     0.176366816473316E-03     0.180831563688848E-03
    0.185409336518252E-03     0.190102996218566E-03     0.194915476479894E-03     0.199849785259059E-03
    0.204909006659673E-03     0.210096302859804E-03     0.215414916088437E-03     0.220868170651975E-03
    0.226459475012040E-03     0.232192323915869E-03     0.238070300580647E-03     0.244097078933133E-03
    0.250276425905986E-03     0.256612203792219E-03     0.263108372659258E-03     0.269768992824114E-03
    0.276598227391210E-03     0.283600344854462E-03     0.290779721765222E-03     0.298140845467769E-03
    0.305688316904040E-03     0.313426853489376E-03     0.321361292061052E-03     0.329496591901464E-03
    0.337837837837838E-03     0.346390243420415E-03     0.355159154181089E-03     0.364150050974538E-03
    0.373368553403935E-03     0.382820423333387E-03     0.392511568489285E-03     0.402448046152824E-03
    0.412636066946004E-03     0.423081998713468E-03     0.433792370502615E-03     0.444773876644467E-03
    0.456033380937839E-03     0.467577920939443E-03     0.479414712362587E-03     0.491551153587230E-03
    0.503994830284213E-03     0.516753520156547E-03     0.529835197800733E-03     0.543248039691143E-03
    0.557000429290584E-03     0.571100962290234E-03     0.585558451982228E-03     0.600381934768256E-03
    0.615580675807605E-03     0.631164174808183E-03     0.647142171964154E-03     0.663524654043867E-03
    0.680321860631918E-03     0.697544290529219E-03     0.715202708315093E-03     0.733308151075488E-03
    0.751871935301510E-03     0.770905663962603E-03     0.790421233758781E-03     0.810430842556452E-03
    0.830946997012483E-03     0.851982520391267E-03     0.873550560579678E-03     0.895664598304935E-03
    0.918338455560488E-03     0.941586304245220E-03     0.965422675021340E-03     0.989862466396521E-03
    0.101492095403596E-02     0.104061380031015E-02     0.106695706408438E-02     0.109396721075607E-02
    0.112166112254613E-02     0.115005610905095E-02     0.117916991806143E-02     0.120902074665594E-02
    0.123962725257407E-02     0.127100856587835E-02     0.130318430091114E-02     0.133617456855425E-02
    0.136999998879888E-02     0.140468170363379E-02     0.144024139025974E-02     0.147670127463843E-02
    0.151408414538448E-02     0.155241336800902E-02     0.159171289952390E-02     0.163200730341564E-02
    0.167332176499835E-02     0.171568210715543E-02     0.175911480647968E-02     0.180364700982202E-02
    0.184930655125919E-02     0.189612196949093E-02     0.194412252567761E-02     0.199333822172940E-02
    0.204379981905843E-02     0.209553885780570E-02     0.214858767655467E-02     0.220297943254396E-02
    0.225874812239165E-02     0.231592860334432E-02     0.237455661506395E-02     0.243466880196638E-02
    0.249630273612522E-02     0.255949694075569E-02     0.262429091429283E-02     0.269072515507932E-02
    0.275884118667826E-02     0.282868158382678E-02     0.290028999904659E-02     0.297371118992825E-02
    0.304899104710612E-02     0.312617662294152E-02     0.320531616093194E-02     0.328645912586483E-02
    0.336965623473471E-02     0.345495948844291E-02     0.354242220429986E-02     0.363209904935012E-02
    0.372404607454108E-02     0.381832074975662E-02     0.391498199973763E-02     0.401409024091196E-02
    0.411570741915658E-02     0.421989704851582E-02     0.432672425089968E-02     0.443625579678717E-02
    0.454856014696003E-02     0.466370749529294E-02     0.478176981262696E-02     0.490282089175369E-02
    0.502693639353812E-02     0.515419389420918E-02     0.528467293384736E-02     0.541845506609989E-02
    0.555562390915441E-02     0.569626519800305E-02     0.584046683802961E-02     0.598831895995326E-02
    0.613991397616320E-02     0.629534663847940E-02     0.645471409737556E-02     0.661811596270135E-02
    0.678565436594178E-02     0.695743402405272E-02     0.713356230491237E-02     0.731414929442975E-02
    0.749930786535191E-02     0.768915374781308E-02     0.788380560166984E-02     0.808338509066728E-02
    0.828801695848289E-02     0.849782910669540E-02     0.871295267472739E-02     0.893352212181176E-02
    0.915967531103308E-02     0.939155359549651E-02     0.962930190667814E-02     0.987306884501181E-02
    0.101230067727693E-01     0.103792719092915E-01     0.106420244286311E-01     0.109114285596658E-01
    0.111876526887474E-01     0.114708694649485E-01     0.117612559079737E-01     0.120589935188027E-01
    0.123642683931345E-01     0.126772713377030E-01     0.129981979895379E-01     0.133272489382434E-01
    0.136646298513741E-01     0.140105516029834E-01     0.143652304054266E-01     0.147288879445012E-01
    0.151017515180070E-01     0.154840541778154E-01     0.158760348755336E-01     0.162779386118577E-01
    0.166900165897061E-01     0.171125263712293E-01     0.175457320387944E-01     0.179899043600458E-01
    0.184453209571433E-01     0.189122664802852E-01     0.193910327856237E-01     0.198819191176850E-01
    0.203852322964061E-01     0.209012869089081E-01     0.214304055061228E-01     0.219729188043976E-01
    0.225291658922045E-01     0.230994944420804E-01     0.236842609279351E-01     0.242838308478578E-01
    0.248985789525662E-01     0.255288894796374E-01     0.261751563936692E-01     0.268377836325207E-01
    0.275171853597865E-01     0.282137862236626E-01     0.289280216223651E-01     0.296603379762685E-01
    0.304111930069330E-01     0.311810560231952E-01     0.319704082145014E-01     0.327797429516667E-01
    0.336095660952479E-01     0.344603963117229E-01     0.353327653976737E-01     0.362272186121772E-01
    0.371443150176093E-01     0.380846278290774E-01     0.390487447726985E-01     0.400372684529471E-01
    0.410508167293024E-01     0.420900231024309E-01     0.431555371101449E-01     0.442480247333847E-01
    0.453681688124782E-01     0.465166694739388E-01     0.476942445680666E-01     0.489016301176287E-01
    0.501395807778975E-01     0.514088703083343E-01     0.527102920562146E-01     0.540446594524955E-01
    0.554128065202371E-01     0.568155883958937E-01     0.582538818638021E-01     0.597285859042002E-01
    0.612406222551187E-01     0.627909359884980E-01     0.643804961008885E-01     0.660102961191051E-01
    0.676813547212135E-01     0.693947163732376E-01     0.711514519819846E-01     0.729526595643967E-01
    0.747994649338470E-01     0.766930224038102E-01     0.786345155093454E-01     0.806251577468444E-01
    0.826661933325069E-01     0.847588979800151E-01     0.869045796978969E-01     0.891045796070741E-01
    0.913602727791057E-01     0.936730690956534E-01     0.960444141297030E-01     0.984757900490946E-01
    0.100968716542926E+00     0.103524751771407E+00     0.106145493339762E+00     0.108832579296783E+00
    0.111587689158665E+00     0.114412544958759E+00     0.117308912323897E+00     0.120278601577966E+00
    0.123323468873422E+00     0.126445417351443E+00     0.129646398331457E+00     0.132928412530776E+00
    0.136293511315113E+00     0.139743797980753E+00     0.143281429069177E+00     0.146908615714976E+00
    0.150627625027878E+00     0.154440781509767E+00     0.158350468507573E+00     0.162359129702942E+00
    0.166469270639614E+00     0.170683460289469E+00     0.175004332658224E+00     0.179434588431764E+00
    0.183976996664165E+00     0.188634396508441E+00     0.193409698991105E+00     0.198305888831658E+00
    0.203326026308136E+00     0.208473249169880E+00     0.213750774598734E+00     0.219161901219892E+00
    0.224710011163636E+00     0.230398572179289E+00     0.236231139802664E+00     0.242211359578392E+00
    0.248342969338505E+00     0.254629801538703E+00     0.261075785653767E+00     0.267684950633602E+00
    0.274461427421468E+00     0.281409451535949E+00     0.288533365718294E+00     0.295837622646772E+00
    0.303326787719736E+00     0.311005541909149E+00     0.318878684686345E+00     0.326951137021850E+00
    0.335227944461158E+00     0.343714280278348E+00     0.352415448709562E+00     0.361336888268316E+00
    0.370484175144749E+00     0.379863026690933E+00     0.389479304994388E+00     0.399339020542092E+00
    0.409448335977222E+00     0.419813569951012E+00     0.430441201072113E+00     0.441337871955933E+00
    0.452510393376493E+00     0.463965748523376E+00     0.475711097366451E+00     0.487753781131091E+00
    0.500101326886671E+00     0.512761452251234E+00     0.525742070215255E+00     0.539051294087517E+00
    0.552697442566192E+00     0.566689044938299E+00     0.581034846410785E+00     0.595743813576567E+00
    0.610825140018940E+00     0.626288252057871E+00     0.642142814641750E+00     0.658398737388302E+00
    0.675066180778419E+00     0.692155562506790E+00     0.709677563993303E+00     0.727643137059277E+00
    0.746063510772706E+00     0.764950198466796E+00     0.784315004936168E+00     0.804170033815245E+00
    0.824527695143413E+00     0.845400713121698E+00     0.866802134065812E+00     0.888745334560519E+00
    0.911244029820443E+00     0.934312282262514E+00     0.957964510295444E+00     0.982215497331698E+00
    0.100708040102761E+01     0.103257476275742E+01     0.105871451732710E+01     0.108551600293420E+01
    0.111299597137968E+01     0.114117159853836E+01     0.117006049509441E+01     0.119968071754860E+01
    0.123005077950418E+01     0.126118966323849E+01     0.129311683156754E+01     0.132585224001084E+01
    0.135941634926429E+01     0.139383013798880E+01     0.142911511592257E+01     0.146529333732543E+01
    0.150238741476347E+01     0.154042053324259E+01
</PP_RAB>
</PP_MESH>
 
 
  <PP_LOCAL columns='4'>
   -0.349651112365476E+01    -0.349651112450553E+01    -0.349651112543287E+01    -0.349651112640582E+01
   -0.349651112744390E+01    -0.349651112855569E+01    -0.349651112971873E+01    -0.349651113098697E+01
   -0.349651113229648E+01    -0.349651113369120E+01    -0.349651113518556E+01    -0.349651113671681E+01
   -0.349651113839556E+01    -0.349651114011556E+01    -0.349651114196535E+01    -0.349651114389574E+01
   -0.349651114593602E+01    -0.349651114808877E+01    -0.349651115035653E+01    -0.349651115275598E+01
   -0.349651115526171E+01    -0.349651115790315E+01    -0.349651116067656E+01    -0.349651116360860E+01
   -0.349651116668213E+01    -0.349651116992493E+01    -0.349651117330337E+01    -0.349651117687866E+01
   -0.349651118062281E+01    -0.349651118457859E+01    -0.349651118870320E+01    -0.349651119306593E+01
   -0.349651119761705E+01    -0.349651120242756E+01    -0.349651120747556E+01    -0.349651121277344E+01
   -0.349651121832115E+01    -0.349651122416574E+01    -0.349651123031455E+01    -0.349651123676172E+01
   -0.349651124353960E+01    -0.349651125066370E+01    -0.349651125813517E+01    -0.349651126599593E+01
   -0.349651127426019E+01    -0.349651128293995E+01    -0.349651129206413E+01    -0.349651130164418E+01
   -0.349651131172623E+01    -0.349651132230950E+01    -0.349651133344546E+01    -0.349651134513401E+01
   -0.349651135742631E+01    -0.349651137033850E+01    -0.349651138393661E+01    -0.349651139821759E+01
   -0.349651141322715E+01    -0.349651142900407E+01    -0.349651144558905E+01    -0.349651146305256E+01
   -0.349651148139528E+01    -0.349651150069300E+01    -0.349651152097950E+01    -0.349651154229411E+01
   -0.349651156473895E+01    -0.349651158831947E+01    -0.349651161314771E+01    -0.349651163924616E+01
   -0.349651166671093E+01    -0.349651169558799E+01    -0.349651172594010E+01    -0.349651175791338E+01
   -0.349651179153119E+01    -0.349651182690617E+01    -0.349651186411041E+01    -0.349651190328642E+01
   -0.349651194447450E+01    -0.349651198784929E+01    -0.349651203349119E+01    -0.349651208152706E+01
   -0.349651213208000E+01    -0.349651218531111E+01    -0.349651224133620E+01    -0.349651230030996E+01
   -0.349651236240687E+01    -0.349651242780005E+01    -0.349651249665626E+01    -0.349651256917019E+01