<UPF version="2.0.1">
 
<PP_INFO>
    Generated with atom program version:      atom 6.1.0
    https://github.com/jlm785/pseudopotential
    Author: Froyen,Troullier,Martins et al.
    Generation date:  18-Apr-26 
    Pseudopotential type:     Improved Troullier - Martinskb-loc=-1 
    Element: Se
    Functional: ca
    Suggested minimum cutoff for wavefunctions:    0.0000 Ry
    Suggested minimum cutoff for charge density:    0.0000 Ry
    The Pseudo was generated with a Relativistic Calculation
    Local component is maximum of all potentials (smoothed)
    Valence configuration:
    nl         occ            Rcut
    4s         2.0000         1.8900
    4p         4.0000         1.8900
    4d         0.0000         1.8900
    UPF generation configuration: not available
</PP_INFO>
 
<!--
END OF HUMAN READABLE SECTION
 -->
 
<PP_HEADER
  generated='Generated by atom version atom 6.1.0'
  author='Froyen,Troullier,Martins et al.'
  date='18-Apr-26 '
  comment='using beta code, beware'
  element='Se'
  pseudo_type='NC'
  relativistic='full'
  is_ultrasoft='F'
  is_paw='F'
  is_coulomb='F'
  has_so='T'
  has_wfc='F'
  has_gipaw='F'
  paw_as_gipaw='F'
  core_correction='F'
  functional=' SLA  PZ   NOGX NOGC'
  z_valence=' 0.600000000000000E+01'
  total_psenergy=' 0.000000000000000E+00'
  wfc_cutoff=' 0.000000000000000E+00'
  rho_cutoff=' 0.000000000000000E+00'
  l_max=' 2'
  l_max_rho='0'
  l_local='-1'
  mesh_size='   466'
  number_of_wfc=' 5'
  number_of_proj=' 5'
/>
 
<PP_MESH
  dx=' 0.250000000000000E-01'
  mesh='   466'
  xmin=' 0.400000000000000E+01'
  rmax=' 0.602582489711793E+02'
  zmesh=' 0.340000000000000E+02'
>
<PP_R columns='4'>
    0.538695261433358E-03     0.552332396902482E-03     0.566314758099615E-03     0.580651084455670E-03
    0.595350336641305E-03     0.610421702167640E-03     0.625874601128740E-03     0.641718692089493E-03
    0.657963878122518E-03     0.674620312997910E-03     0.691698407529680E-03     0.709208836082849E-03
    0.727162543245276E-03     0.745570750668381E-03     0.764444964081039E-03     0.783796980481044E-03
    0.803638895508605E-03     0.823983111006524E-03     0.844842342771748E-03     0.866229628503156E-03
    0.888158335950544E-03     0.910642171269908E-03     0.933695187590234E-03     0.957331793797160E-03
    0.981566763539002E-03     0.100641524446077E-02     0.103189276767191E-02     0.105801525745381E-02
    0.108479904121294E-02     0.111226085968603E-02     0.114041787740359E-02     0.116928769341827E-02
    0.119888835230489E-02     0.122923835543882E-02     0.126035667256001E-02     0.129226275362963E-02
    0.132497654098699E-02     0.135851848181412E-02     0.139290954091591E-02     0.142817121382382E-02
    0.146432554023129E-02     0.150139511776925E-02     0.153940311613036E-02     0.157837329155089E-02
    0.161833000165904E-02     0.165929822069933E-02     0.170130355514231E-02     0.174437225968937E-02
    0.178853125368288E-02     0.183380813793157E-02     0.188023121196199E-02     0.192782949170660E-02
    0.197663272763970E-02     0.202667142337243E-02     0.207797685471852E-02     0.213058108924269E-02
    0.218451700630394E-02     0.223981831760619E-02     0.229651958826921E-02     0.235465625843296E-02
    0.241426466540879E-02     0.247538206639148E-02     0.253804666174619E-02     0.260229761888492E-02
    0.266817509674743E-02     0.273572027090187E-02     0.280497535928087E-02     0.287598364856912E-02
    0.294878952125893E-02     0.302343848339078E-02     0.309997719299601E-02     0.317845348925968E-02
    0.325891642242158E-02     0.334141628443423E-02     0.342600464039697E-02     0.351273436078587E-02
    0.360165965449947E-02     0.369283610274109E-02     0.378632069375895E-02     0.388217185846559E-02
    0.398044950695920E-02     0.408121506596927E-02     0.418453151725040E-02     0.429046343694786E-02
    0.439907703595986E-02     0.451044020132143E-02     0.462462253863611E-02     0.474169541558167E-02
    0.486173200651725E-02     0.498480733821971E-02     0.511099833677780E-02     0.524038387567348E-02
    0.537304482508043E-02     0.550906410241050E-02     0.564852672413983E-02     0.579151985894688E-02
    0.593813288219575E-02     0.608845743179861E-02     0.624258746549244E-02     0.640061931956567E-02
    0.656265176907146E-02     0.672878608956537E-02     0.689912612040582E-02     0.707377832965712E-02
    0.725285188063548E-02     0.743645870013960E-02     0.762471354840858E-02     0.781773409085079E-02
    0.801564097158861E-02     0.821855788886492E-02     0.842661167235853E-02     0.863993236245685E-02
    0.885865329153536E-02     0.908291116729470E-02     0.931284615820745E-02     0.954860198112793E-02
    0.979032599111999E-02     0.100381692735586E-01     0.102922867385634E-01     0.105528372178221E-01
    0.108199835638660E-01     0.110938927518576E-01     0.113747359839559E-01     0.116626887963233E-01
    0.119579311688412E-01     0.122606476376032E-01     0.125710274102567E-01     0.128892644842632E-01
    0.132155577681536E-01     0.135501112058519E-01     0.138931339041475E-01     0.142448402633930E-01
    0.146054501115120E-01     0.149751888413985E-01     0.153542875517946E-01     0.157429831917350E-01
    0.161415187086478E-01     0.165501432002046E-01     0.169691120700143E-01     0.173986871872593E-01
    0.178391370503716E-01     0.182907369548535E-01     0.187537691653463E-01     0.192285230920543E-01
    0.197152954716365E-01     0.202143905526757E-01     0.207261202858445E-01     0.212508045188845E-01
    0.217887711965211E-01     0.223403565654402E-01     0.229059053844531E-01     0.234857711399817E-01
    0.240803162669995E-01     0.246899123755649E-01     0.253149404830899E-01     0.259557912524881E-01
    0.266128652363518E-01     0.272865731273104E-01     0.279773360147269E-01     0.286855856478921E-01
    0.294117647058824E-01     0.301563270742479E-01     0.309197381287066E-01     0.317024750260186E-01
    0.325050270022249E-01     0.333278956784361E-01     0.341715953743613E-01     0.350366534297752E-01
    0.359236105341227E-01     0.368330210644666E-01     0.377654534319924E-01     0.387214904372830E-01
    0.397017296345883E-01     0.407067837053162E-01     0.417372808409782E-01     0.427938651358294E-01
    0.438771969894491E-01     0.449879535195111E-01     0.461268289850050E-01     0.472945352201701E-01
    0.484918020794155E-01     0.497193778935027E-01     0.509780299372763E-01     0.522685449092364E-01
    0.535917294232503E-01     0.549484105127124E-01     0.563394361474675E-01     0.577656757638190E-01
    0.592280208079552E-01     0.607273852931320E-01     0.622647063709610E-01     0.638409449171601E-01
    0.654570861321314E-01     0.671141401567442E-01     0.688131427037057E-01     0.705551557049146E-01
    0.723412679752044E-01     0.741725958928868E-01     0.760502840975249E-01     0.779755062053708E-01
    0.799494655429131E-01     0.819733958989956E-01     0.840485622959755E-01     0.861762617804030E-01
    0.883578242337187E-01     0.905946132034715E-01     0.928880267555814E-01     0.952394983481754E-01
    0.976504977275455E-01     0.100122531846789E+00     0.102657145807701E+00     0.105255923826517E+00
    0.107920490224095E+00     0.110652510441174E+00     0.113453692079323E+00     0.116325785968252E+00
    0.119270587260138E+00     0.122289936551647E+00     0.125385721034377E+00     0.128559875674405E+00
    0.131814384421708E+00     0.135151281450197E+00     0.138572652429140E+00     0.142080635826773E+00
    0.145677424246915E+00     0.149365265799414E+00     0.153146465505290E+00     0.157023386737446E+00
    0.160998452697859E+00     0.165074147932152E+00     0.169253019882521E+00     0.173537680479971E+00
    0.177930807776851E+00     0.182435147620731E+00     0.187053515370642E+00     0.191788797656768E+00
    0.196643954184684E+00     0.201622019585270E+00     0.206726105311450E+00     0.211959401582955E+00
    0.217325179380313E+00     0.222826792489319E+00     0.228467679597258E+00     0.234251366442199E+00
    0.240181468016696E+00     0.246261690827272E+00     0.252495835211115E+00     0.258887797711400E+00
    0.265441573512768E+00     0.272161258938438E+00     0.279051054010545E+00     0.286115265075291E+00
    0.293358307494551E+00     0.300784708405618E+00     0.308399109550811E+00     0.316206270178716E+00
    0.324211070018871E+00     0.332418512331753E+00     0.340833727035982E+00     0.349461973914688E+00
    0.358308645903043E+00     0.367379272459024E+00     0.376679523019501E+00     0.386215210543824E+00
    0.395992295147109E+00     0.406016887825503E+00     0.416295254275759E+00     0.426833818811498E+00
    0.437639168378613E+00     0.448718056672328E+00     0.460077408358476E+00     0.471724323401638E+00
    0.483666081502855E+00     0.495910146649678E+00     0.508464171781401E+00     0.521336003572401E+00
    0.534533687336561E+00     0.548065472055853E+00     0.561939815536225E+00     0.576165389694000E+00
    0.590751085976108E+00     0.605706020917530E+00     0.621039541839430E+00     0.636761232691531E+00
    0.652880920042401E+00     0.669408679221374E+00     0.686354840615962E+00     0.703729996128681E+00
    0.721545005797334E+00     0.739811004582893E+00     0.758539409329208E+00     0.777741925898906E+00
    0.797430556489938E+00     0.817617607137343E+00     0.838315695404920E+00     0.859537758271616E+00
    0.881297060217559E+00     0.903607201514792E+00     0.926482126727880E+00     0.949936133429726E+00
    0.973983881138009E+00     0.998640400477869E+00     0.102392110257653E+01     0.104984178869576E+01
    0.107641866010818E+01     0.110366832822356E+01     0.113160782497153E+01     0.116025461344708E+01
    0.118962659882551E+01     0.121974213955385E+01     0.125062005882538E+01     0.128227965634481E+01
    0.131474072039120E+01     0.134802354018628E+01     0.138214891857586E+01     0.141713818503232E+01
    0.145301320898618E+01     0.148979641349526E+01     0.152751078925975E+01     0.156617990899223E+01
    0.160582794215130E+01     0.164647967004836E+01     0.168816050133665E+01     0.173089648789257E+01
    0.177471434109888E+01     0.181964144854023E+01     0.186570589112127E+01     0.191293646061815E+01
    0.196136267767427E+01     0.201101481025171E+01     0.206192389254964E+01     0.211412174440174E+01
    0.216764099116458E+01     0.222251508410961E+01     0.227877832133120E+01     0.233646586918416E+01
    0.239561378426377E+01     0.245625903594239E+01     0.251843952947649E+01     0.258219412969867E+01
    0.264756268530946E+01     0.271458605378406E+01     0.278330612690953E+01     0.285376585696863E+01
    0.292600928358629E+01     0.300008156125587E+01     0.307602898756218E+01     0.315389903211896E+01
    0.323374036623893E+01     0.331560289335497E+01     0.339953778021140E+01     0.348559748884480E+01
    0.357383580937456E+01     0.366430789362340E+01     0.375707028958908E+01     0.385218097678878E+01
    0.394969940249810E+01     0.404968651890761E+01     0.415220482121991E+01     0.425731838671120E+01
    0.436509291478166E+01     0.447559576801970E+01     0.458889601430574E+01     0.470506446998196E+01
    0.482417374411476E+01     0.494629828387781E+01     0.507151442108395E+01     0.519990041989507E+01
    0.533153652573974E+01     0.546650501546923E+01     0.560489024878323E+01     0.574677872095738E+01
    0.589225911690564E+01     0.604142236661127E+01     0.619436170196101E+01     0.635117271501806E+01
    0.651195341777021E+01     0.667680430339053E+01     0.684582840904889E+01     0.701913138031351E+01
    0.719682153718295E+01     0.737900994178955E+01     0.756581046781691E+01     0.775733987167468E+01
    0.795371786547509E+01     0.815506719185688E+01     0.836151370070356E+01     0.857318642780353E+01
    0.879021767550178E+01     0.901274309539308E+01     0.924090177310865E+01     0.947483631524931E+01
    0.971469293851909E+01     0.996062156111552E+01     0.102127758964334E+02     0.104713135491406E+02
    0.107363961136861E+02     0.110081892753021E+02     0.112868629135621E+02     0.115725912085617E+02
    0.118655527497863E+02     0.121659306477361E+02     0.124739126483754E+02     0.127896912504803E+02
    0.131134638259564E+02     0.134454327432032E+02     0.137858054936005E+02     0.141347948211973E+02
    0.144926188556840E+02     0.148595012487303E+02     0.152356713137748E+02     0.156213641693536E+02
    0.160168208860567E+02     0.164222886372055E+02     0.168380208533433E+02     0.172642773806385E+02
    0.177013246432965E+02     0.181494358100836E+02     0.186088909650663E+02     0.190799772826729E+02
    0.195629892071871E+02     0.200582286367852E+02     0.205660051122319E+02     0.210866360103541E+02
    0.216204467424110E+02     0.221677709574871E+02     0.227289507510338E+02     0.233043368786901E+02
    0.238942889755160E+02     0.244991757807767E+02     0.251193753684162E+02     0.257552753833661E+02
    0.264072732838358E+02     0.270757765897377E+02     0.277612031373994E+02     0.284639813407258E+02
    0.291845504589714E+02     0.299233608712915E+02     0.306808743582442E+02     0.314575643904181E+02
    0.322539164243664E+02     0.330704282060341E+02     0.339076100818644E+02     0.347659853177821E+02
    0.356460904262523E+02     0.365484755016175E+02     0.374737045639251E+02     0.384223559114577E+02
    0.393950224821888E+02     0.403923122243880E+02     0.414148484766087E+02     0.424632703572950E+02
    0.435382331642514E+02     0.446404087842251E+02     0.457704861128575E+02     0.469291714852661E+02
    0.481171891175273E+02     0.493352815593342E+02     0.505842101581154E+02     0.518647555349012E+02
    0.531777180722371E+02     0.545239184144500E+02     0.559041979805759E+02     0.573194194902757E+02
    0.587704675030624E+02     0.602582489711793E+02
</PP_R>
<PP_RAB columns='4'>
    0.134673815358340E-04     0.138083099225621E-04     0.141578689524904E-04     0.145162771113918E-04
    0.148837584160326E-04     0.152605425541910E-04     0.156468650282185E-04     0.160429673022373E-04
    0.164490969530629E-04     0.168655078249477E-04     0.172924601882420E-04     0.177302209020712E-04
    0.181790635811319E-04     0.186392687667095E-04     0.191111241020260E-04     0.195949245120261E-04
    0.200909723877151E-04     0.205995777751631E-04     0.211210585692937E-04     0.216557407125789E-04
    0.222039583987636E-04     0.227660542817477E-04     0.233423796897558E-04     0.239332948449290E-04
    0.245391690884751E-04     0.251603811115191E-04     0.257973191917978E-04     0.264503814363453E-04
    0.271199760303235E-04     0.278065214921508E-04     0.285104469350897E-04     0.292321923354568E-04
    0.299722088076222E-04     0.307309588859705E-04     0.315089168140001E-04     0.323065688407408E-04
    0.331244135246749E-04     0.339629620453530E-04     0.348227385228977E-04     0.357042803455956E-04
    0.366081385057823E-04     0.375348779442312E-04     0.384850779032591E-04     0.394593322887721E-04
    0.404582500414759E-04     0.414824555174833E-04     0.425325888785577E-04     0.436093064922344E-04
    0.447132813420720E-04     0.458452034482893E-04     0.470057802990497E-04     0.481957372926650E-04
    0.494158181909925E-04     0.506667855843107E-04     0.519494213679629E-04     0.532645272310673E-04
    0.546129251575985E-04     0.559954579401547E-04     0.574129897067303E-04     0.588664064608239E-04
    0.603566166352197E-04     0.618845516597870E-04     0.634511665436548E-04     0.650574404721230E-04
    0.667043774186857E-04     0.683930067725467E-04     0.701243839820218E-04     0.718995912142280E-04
    0.737197380314733E-04     0.755859620847694E-04     0.774994298249003E-04     0.794613372314921E-04
    0.814729105605396E-04     0.835354071108557E-04     0.856501160099242E-04     0.878183590196468E-04
    0.900414913624867E-04     0.923209025685274E-04     0.946580173439737E-04     0.970542964616399E-04
    0.995112376739799E-04     0.102030376649232E-03     0.104613287931260E-03     0.107261585923697E-03
    0.109976925898996E-03     0.112761005033036E-03     0.115615563465903E-03     0.118542385389542E-03
    0.121543300162931E-03     0.124620183455493E-03     0.127774958419445E-03     0.131009596891837E-03
    0.134326120627011E-03     0.137726602560263E-03     0.141213168103496E-03     0.144787996473672E-03
    0.148453322054894E-03     0.152211435794965E-03     0.156064686637311E-03     0.160015482989142E-03
    0.164066294226787E-03     0.168219652239134E-03     0.172478153010145E-03     0.176844458241428E-03
    0.181321297015887E-03     0.185911467503490E-03     0.190617838710214E-03     0.195443352271270E-03
    0.200391024289715E-03     0.205463947221623E-03     0.210665291808963E-03     0.215998309061421E-03
    0.221466332288384E-03     0.227072779182368E-03     0.232821153955186E-03     0.238715049528198E-03
    0.244758149778000E-03     0.250954231838966E-03     0.257307168464085E-03     0.263820930445553E-03
    0.270499589096649E-03     0.277347318796439E-03     0.284368399598898E-03     0.291567219908083E-03
    0.298948279221029E-03     0.306516190940080E-03     0.314275685256417E-03     0.322231612106580E-03
    0.330388944203839E-03     0.338752780146298E-03     0.347328347603687E-03     0.356121006584825E-03
    0.365136252787801E-03     0.374379721034963E-03     0.383857188794865E-03     0.393574579793375E-03
    0.403537967716196E-03     0.413753580005115E-03     0.424227801750358E-03     0.434967179681482E-03
    0.445978426259289E-03     0.457268423871338E-03     0.468844229133657E-03     0.480713077301358E-03
    0.492882386790911E-03     0.505359763816891E-03     0.518153007146113E-03     0.531270112972112E-03
    0.544719279913028E-03     0.558508914136006E-03     0.572647634611327E-03     0.587144278499542E-03
    0.602007906674987E-03     0.617247809389123E-03     0.632873512077248E-03     0.648894781312203E-03
    0.665321630908794E-03     0.682164328182760E-03     0.699433400368172E-03     0.717139641197304E-03
    0.735294117647059E-03     0.753908176856198E-03     0.772993453217665E-03     0.792561875650464E-03
    0.812625675055624E-03     0.833197391960902E-03     0.854289884359032E-03     0.875916335744381E-03
    0.898090263353066E-03     0.920825526611666E-03     0.944136335799810E-03     0.968037260932075E-03
    0.992543240864708E-03     0.101766959263291E-02     0.104343202102445E-02     0.106984662839574E-02
    0.109692992473623E-02     0.112469883798778E-02     0.115317072462512E-02     0.118236338050425E-02
    0.121229505198539E-02     0.124298444733757E-02     0.127445074843191E-02     0.130671362273091E-02
    0.133979323558126E-02     0.137371026281781E-02     0.140848590368669E-02     0.144414189409548E-02
    0.148070052019888E-02     0.151818463232830E-02     0.155661765927403E-02     0.159602362292900E-02
    0.163642715330329E-02     0.167785350391861E-02     0.172032856759264E-02     0.176387889262287E-02
    0.180853169938011E-02     0.185431489732217E-02     0.190125710243812E-02     0.194938765513427E-02
    0.199873663857283E-02     0.204933489747489E-02     0.210121405739939E-02     0.215440654451008E-02
    0.220894560584297E-02     0.226486533008679E-02     0.232220066888954E-02     0.238098745870439E-02
    0.244126244318864E-02     0.250306329616972E-02     0.256642864519253E-02     0.263139809566293E-02
    0.269801225560239E-02     0.276631276102935E-02     0.283634230198307E-02     0.290814464920631E-02
    0.298176468150344E-02     0.305724841379118E-02     0.313464302585943E-02     0.321399689186012E-02
    0.329535961054269E-02     0.337878203625492E-02     0.346431631072849E-02     0.355201589566932E-02
    0.364193560617288E-02     0.373413164498535E-02     0.382866163763224E-02     0.392558466843616E-02
    0.402496131744647E-02     0.412685369830379E-02     0.423132549706304E-02     0.433844201199928E-02
    0.444827019442129E-02     0.456087869051828E-02     0.467633788426606E-02     0.479471994141920E-02
    0.491609885461711E-02     0.504055048963175E-02     0.516815263278625E-02     0.529898503957388E-02
    0.543312948450783E-02     0.557066981223298E-02     0.571169198993145E-02     0.585628416105498E-02
    0.600453670041739E-02     0.615654227068181E-02     0.631239588027787E-02     0.647219494278501E-02
    0.663603933781921E-02     0.680403147346095E-02     0.697627635026362E-02     0.715288162688227E-02
    0.733395768736377E-02     0.751961771014044E-02     0.770997773877028E-02     0.790515675446791E-02
    0.810527675047177E-02     0.831046280829382E-02     0.852084317589955E-02     0.873654934786721E-02
    0.895771614757608E-02     0.918448181147560E-02     0.941698807548753E-02     0.965538026359560E-02
    0.989980737867772E-02     0.101504221956376E-01     0.104073813568940E-01     0.106708454702874E-01
    0.109409792094653E-01     0.112179514168082E-01     0.115019352089619E-01     0.117931080850409E-01
    0.120916520375714E-01     0.123977536662419E-01     0.127116042945350E-01     0.130334000893100E-01
    0.133633421834140E-01     0.137016368013963E-01     0.140484953884056E-01     0.144041347423500E-01
    0.147687771494027E-01     0.151426505229383E-01     0.155259885459858E-01     0.159190308172883E-01
    0.163220230010600E-01     0.167352169805344E-01     0.171588710153991E-01     0.175932499032170E-01
    0.180386251449333E-01     0.184952751145723E-01     0.189634852332302E-01     0.194435481474726E-01
    0.199357639122485E-01     0.204404401784336E-01     0.209578923851230E-01     0.214884439567904E-01
    0.220324265054390E-01     0.225901800378698E-01     0.231620531681970E-01     0.237484033357432E-01
    0.243495970284502E-01     0.249660100119467E-01     0.255980275644133E-01     0.262460447173940E-01
    0.269104665027044E-01     0.275917082055890E-01     0.282901956242883E-01     0.290063653361769E-01
    0.297406649706378E-01     0.304935534888462E-01     0.312655014706344E-01     0.320569914086202E-01
    0.328685180097800E-01     0.337005885046570E-01     0.345537229643966E-01     0.354284546258080E-01
    0.363253302246546E-01     0.372449103373814E-01     0.381877697314937E-01     0.391544977248056E-01
    0.401456985537825E-01     0.411619917512089E-01     0.422040125334164E-01     0.432724121973143E-01
    0.443678585274720E-01     0.454910362135058E-01     0.466426472780319E-01     0.478234115154537E-01
    0.490340669418568E-01     0.502753702562927E-01     0.515480973137411E-01     0.528530436100434E-01
    0.541910247791146E-01     0.555628771027402E-01     0.569694580332800E-01     0.584116467296039E-01
    0.598903446065942E-01     0.614064758985598E-01     0.629609882369122E-01     0.645548532424668E-01
    0.661890671327366E-01     0.678646513446014E-01     0.695826531727383E-01     0.713441464242158E-01
    0.731502320896572E-01     0.750020390313968E-01     0.769007246890546E-01     0.788474758029740E-01
    0.808435091559733E-01     0.828900723338744E-01     0.849884445052850E-01     0.871399372211201E-01
    0.893458952343639E-01     0.916076973405849E-01     0.939267572397271E-01     0.963045244197196E-01
    0.987424850624526E-01     0.101242162972690E+00     0.103805120530498E+00     0.106432959667780E+00
    0.109127322869542E+00     0.111889894200492E+00     0.114722400357643E+00     0.117626611749549E+00
    0.120604343602869E+00     0.123657457096945E+00     0.126787860527099E+00     0.129997510497377E+00
    0.133288413143494E+00     0.136662625386731E+00     0.140122256219581E+00     0.143669468023935E+00
    0.147306477922641E+00     0.151035559165282E+00     0.154859042549025E+00     0.158779317875452E+00
    0.162798835444255E+00     0.166920107584763E+00     0.171145710226222E+00     0.175478284507838E+00
    0.179920538429574E+00     0.184475248544739E+00     0.189145261695423E+00     0.193933496791867E+00
    0.198842946636877E+00     0.203876679796422E+00     0.209037842517589E+00     0.214329660695088E+00
    0.219755441887544E+00     0.225318577384827E+00     0.231022544327716E+00     0.236870907881233E+00
    0.242867323462977E+00     0.249015539027888E+00     0.255319397410835E+00     0.261782838728514E+00
    0.268409902842154E+00     0.275204731882553E+00     0.282171572839053E+00     0.289314780214042E+00
    0.296638818744658E+00     0.304148266193403E+00     0.311847816209386E+00     0.319742281262006E+00
    0.327836595648910E+00     0.336135818580080E+00     0.344645137340013E+00     0.353369870529933E+00
    0.362315471392101E+00     0.371487531218257E+00     0.380891782844369E+00     0.390534104233839E+00
    0.400420522151419E+00     0.410557215930137E+00     0.420950521333582E+00     0.431606934515962E+00
    0.442533116082413E+00     0.453735895252091E+00     0.465222274126657E+00     0.476999432066823E+00
    0.489074730179678E+00     0.501455715919629E+00     0.514150127805798E+00     0.527165900258853E+00
    0.540511168560275E+00     0.554194273937177E+00     0.568223768775846E+00     0.582608421967251E+00
    0.597357224387900E+00     0.612479394519418E+00     0.627984384210405E+00     0.643881884584152E+00
    0.660181832095896E+00     0.676894414743442E+00     0.694030078434985E+00     0.711599533518145E+00
    0.729613761474284E+00     0.748084021782288E+00     0.767021858956106E+00     0.786439109760452E+00
    0.806347910609161E+00     0.826760705150853E+00     0.847690252046609E+00     0.869149632944553E+00
    0.891152260656308E+00     0.913711887540438E+00     0.936842614098128E+00     0.960558897786443E+00
    0.984875562054720E+00     0.100980780560970E+01     0.103537121191522E+01     0.106158175893238E+01
    0.108845582910628E+01     0.111601021960563E+01     0.114426215282144E+01     0.117322928713165E+01
    0.120292972793818E+01     0.123338203898336E+01     0.126460525395289E+01     0.129661888837253E+01
    0.132944295180593E+01     0.136309796036125E+01     0.139760494951440E+01     0.143298548725689E+01
    0.146926168757656E+01     0.150645622427948E+01
</PP_RAB>
</PP_MESH>
 
 
  <PP_LOCAL columns='4'>
   -0.386162921906493E+01    -0.386162920637589E+01    -0.386162919305436E+01    -0.386162917902582E+01
   -0.386162916430402E+01    -0.386162914881282E+01    -0.386162913252470E+01    -0.386162911541395E+01
   -0.386162909741166E+01    -0.386162907850000E+01    -0.386162905860737E+01    -0.386162903769684E+01
   -0.386162901572276E+01    -0.386162899261814E+01    -0.386162896833281E+01    -0.386162894279503E+01
   -0.386162891594557E+01    -0.386162888772560E+01    -0.386162885804961E+01    -0.386162882686624E+01
   -0.386162879407983E+01    -0.386162875960217E+01    -0.386162872337153E+01    -0.386162868527144E+01
   -0.386162864522393E+01    -0.386162860312065E+01    -0.386162855887395E+01    -0.386162851234041E+01
   -0.386162846341360E+01    -0.386162841199616E+01    -0.386162835791878E+01    -0.386162830111820E+01
   -0.386162824135856E+01    -0.386162817855335E+01    -0.386162811253169E+01    -0.386162804310504E+01
   -0.386162797013758E+01    -0.386162789341985E+01    -0.386162781277269E+01    -0.386162772800796E+01
   -0.386162763886766E+01    -0.386162754517428E+01    -0.386162744667526E+01    -0.386162734312716E+01
   -0.386162723425398E+01    -0.386162711982978E+01    -0.386162699950799E+01    -0.386162687304147E+01
   -0.386162674007416E+01    -0.386162660029666E+01    -0.386162645335588E+01    -0.386162629887880E+01
   -0.386162613648056E+01    -0.386162596576078E+01    -0.386162578629186E+01    -0.386162559761183E+01
   -0.386162539926688E+01    -0.386162519073962E+01    -0.386162497154077E+01    -0.386162474109423E+01
   -0.386162449883706E+01    -0.386162424415367E+01    -0.386162397642257E+01    -0.386162369495200E+01
   -0.386162339908776E+01    -0.386162308802100E+01    -0.386162276104159E+01    -0.386162241724625E+01
   -0.386162205586509E+01    -0.386162167594222E+01    -0.386162127655099E+01    -0.386162085669329E+01
   -0.386162041531421E+01    -0.386161995130470E+01    -0.386161946348477E+01    -0.386161895069101E+01
   -0.386161841161768E+01    -0.386161784488479E+01    -0.386161724912613E+01    -0.386161662281941E+01
   -0.386161596440980E+01    -0.386161527226116E+01    -0.386161454461810E+01    -0.386161377968874E+01
   -0.386161297556448E+01    -0.386161213020639E+01    -0.386161124153328E+01    -0.386161030732418E+01
   -0.386160932523586E+01    -0.386160829279644E+01    -0.386160720746836E+01    -0.386160606650667E+01
   -0.386160486709738E+01    -0.386160360619925E+01    -0.386160228070613E+01    -0.386160088728942E+01
   -0.386159942248618E+01    -0.386159788261420E+01    -0.386159626385808E+01    -0.386159456216511E+01
   -0.386159277328411E+01    -0.386159089276858E+01    -0.386158891591418E+01    -0.386158683780044E+01
   -0.386158465321723E+01    -0.386158235675656E+01    -0.386157994268191E+01    -0.386157740495854E+01
   -0.386157473727309E+01    -0.386157193298186E+01    -0.386156898508802E+01    -0.386156588625065E+01
   -0.386156262875955E+01    -0.386155920449006E+01    -0.386155560494038E+01    -0.386155182112505E+01
   -0.386154784364620E+01    -0.386154366260830E+01    -0.386153926760042E+01    -0.386153464769408E+01
   -0.386152979142654E+01    -0.386152468671103E+01    -0.386151932086890E+01    -0.386151368059169E+01
   -0.386150775186116E+01    -0.386150151996256E+01    -0.386149496947479E+01    -0.386148808411053E+01
   -0.386148084682336E+01    -0.386147323971327E+01    -0.386146524387964E+01    -0.386145683959197E+01
   -0.386144800604892E+01    -0.386143872140015E+01    -0.386142896275388E+01    -0.386141870593652E+01
   -0.386140792570333E+01    -0.386139659547244E+01    -0.386138468729965E+01    -0.386137217187130E+01
   -0.386135901840103E+01    -0.386134519458679E+01    -0.386133066645860E+01    -0.386131539837677E+01
   -0.386129935291855E+01    -0.386128249081841E+01    -0.386126477080872E+01    -0.386124614962304E+01
   -0.386122658180224E+01    -0.386120601970167E+01    -0.386118441325386E+01    -0.386116170997693E+01