<UPF version="2.0.1">
 
<PP_INFO>
    Generated with atom program version:      atom 6.1.0
    https://github.com/jlm785/pseudopotential
    Author: Froyen,Troullier,Martins et al.
    Generation date:  10-Apr-26 
    Pseudopotential type:     Improved Troullier - Martinskb-loc=-1 
    Element: S 
    Functional: pb
    Suggested minimum cutoff for wavefunctions:    0.0000 Ry
    Suggested minimum cutoff for charge density:    0.0000 Ry
    The Pseudo was generated with a Relativistic Calculation
    Local component is maximum of all potentials (smoothed)
    Valence configuration:
    nl         occ            Rcut
    3s         2.0000         1.6400
    3p         4.0000         1.6400
    3d         0.0000         1.6400
    UPF generation configuration: not available
</PP_INFO>
 
<!--
END OF HUMAN READABLE SECTION
 -->
 
<PP_HEADER
  generated='Generated by atom version atom 6.1.0'
  author='Froyen,Troullier,Martins et al.'
  date='10-Apr-26 '
  comment='using beta code, beware'
  element='S '
  pseudo_type='NC'
  relativistic='full'
  is_ultrasoft='F'
  is_paw='F'
  is_coulomb='F'
  has_so='T'
  has_wfc='F'
  has_gipaw='F'
  paw_as_gipaw='F'
  core_correction='F'
  functional=' SLA  PW   PBX PBC'
  z_valence=' 0.600000000000000E+01'
  total_psenergy=' 0.000000000000000E+00'
  wfc_cutoff=' 0.000000000000000E+00'
  rho_cutoff=' 0.000000000000000E+00'
  l_max=' 2'
  l_max_rho='0'
  l_local='-1'
  mesh_size='   436'
  number_of_wfc=' 5'
  number_of_proj=' 5'
/>
 
<PP_MESH
  dx=' 0.250000000000000E-01'
  mesh='   436'
  xmin=' 0.400000000000000E+01'
  rmax=' 0.604859603490423E+02'
  zmesh=' 0.160000000000000E+02'
>
<PP_R columns='4'>
    0.114472743054589E-02     0.117370634341777E-02     0.120341886096168E-02     0.123388355446830E-02
    0.126511946536277E-02     0.129714611710623E-02     0.132998352739857E-02     0.136365222069017E-02
    0.139817324101035E-02     0.143356816512056E-02     0.146985911600057E-02     0.150706877667605E-02
    0.154522040439621E-02     0.158433784517031E-02     0.162444554867221E-02     0.166556858352222E-02
    0.170773265295578E-02     0.175096411088886E-02     0.179528997838996E-02     0.184073796056921E-02
    0.188733646389491E-02     0.193511461394856E-02     0.198410227362925E-02     0.203433006181896E-02
    0.208582937252038E-02     0.213863239447913E-02     0.219277213130281E-02     0.224828242208935E-02
    0.230519796257750E-02     0.236355432683282E-02     0.242338798948263E-02     0.248473634851383E-02
    0.254763774864789E-02     0.261213150530749E-02     0.267825792919001E-02     0.274605835146296E-02
    0.281557514959736E-02     0.288685177385501E-02     0.295993277444631E-02     0.303486382937562E-02
    0.311169177299150E-02     0.319046462525965E-02     0.327123162177702E-02     0.335404324454563E-02
    0.343895125352545E-02     0.352600871898608E-02     0.361527005467740E-02     0.370679105183992E-02
    0.380062891407612E-02     0.389684229310459E-02     0.399549132541922E-02     0.409663766987652E-02
    0.420034454623436E-02     0.430667677466641E-02     0.441570081627685E-02     0.452748481464072E-02
    0.464209863839587E-02     0.475961392491315E-02     0.488010412507207E-02     0.500364454917003E-02
    0.513031241399367E-02     0.526018689108190E-02     0.539334915621066E-02     0.552988244013046E-02
    0.566987208058828E-02     0.581340557566647E-02     0.596057263847185E-02     0.611146525320938E-02
    0.626617773267523E-02     0.642480677720540E-02     0.658745153511652E-02     0.675421366467683E-02
    0.692519739764587E-02     0.710050960442273E-02     0.728025986084356E-02     0.746456051666998E-02
    0.765352676581137E-02     0.784727671832483E-02     0.804593147423776E-02     0.824961519923939E-02
    0.845845520228829E-02     0.867258201518470E-02     0.889212947415710E-02     0.911723480351421E-02
    0.934803870141469E-02     0.958468542780803E-02     0.982732289460173E-02     0.100761027581110E-01
    0.103311805138492E-01     0.105927155937169E-01     0.108608714656528E-01     0.111358157358062E-01
    0.114177202532959E-01     0.117067612176223E-01     0.120031192887971E-01     0.123069797002621E-01
    0.126185323746660E-01     0.129379720425720E-01     0.132654983641714E-01     0.136013160540771E-01
    0.139456350092769E-01     0.142986704403264E-01     0.146606430058624E-01     0.150317789505214E-01
    0.154123102463504E-01     0.158024747377967E-01     0.162025162903682E-01     0.166126849430579E-01
    0.170332370646258E-01     0.174644355138380E-01     0.179065498037619E-01     0.183598562702208E-01
    0.188246382445126E-01     0.193011862305012E-01     0.197897980861908E-01     0.202907792098969E-01
    0.208044427311300E-01     0.213311097063121E-01     0.218711093194472E-01     0.224247790878720E-01
    0.229924650732151E-01     0.235745220976973E-01     0.241713139659063E-01     0.247832136921871E-01
    0.254106037337874E-01     0.260538762299068E-01     0.267134332467954E-01     0.273896870290593E-01
    0.280830602573264E-01     0.287939863124354E-01     0.295229095463134E-01     0.302702855597102E-01
    0.310365814869631E-01     0.318222762879718E-01     0.326278610475635E-01     0.334538392824369E-01
    0.343007272558767E-01     0.351690543004347E-01     0.360593631487804E-01     0.369722102729259E-01
    0.379081662320396E-01     0.388678160290638E-01     0.398517594763608E-01     0.408606115706155E-01
    0.418950028772275E-01     0.429555799244358E-01     0.440430056074196E-01     0.451579596026295E-01
    0.463011387926074E-01     0.474732577015605E-01     0.486750489419628E-01     0.499072636724611E-01
    0.511706720673739E-01     0.524660637980755E-01     0.537942485265661E-01     0.551560564115372E-01
    0.565523386272475E-01     0.579839678955346E-01     0.594518390312946E-01     0.609568695017708E-01
    0.625000000000000E-01     0.640821950327768E-01     0.657044435235015E-01     0.673677594302895E-01
    0.690731823797280E-01     0.708217783166766E-01     0.726146401705177E-01     0.744528885382724E-01
    0.763376723850106E-01     0.782701697619916E-01     0.802515885429839E-01     0.822831671792264E-01
    0.843661754735002E-01     0.865019153737970E-01     0.886917217870786E-01     0.909369634136376E-01
    0.932390436025794E-01     0.955994012289611E-01     0.980195115931356E-01     0.100500887342861E+00
    0.103045079418758E+00     0.105653678023693E+00     0.108328313616712E+00     0.111070657932127E+00
    0.113882425024407E+00     0.116765372339514E+00     0.119721301813369E+00     0.122752060998115E+00
    0.125859544216905E+00     0.129045693747905E+00     0.132312501038292E+00     0.135662007948965E+00
    0.139096308030779E+00     0.142617547833081E+00     0.146227928245375E+00     0.149929705872944E+00
    0.153725194447309E+00     0.157616766272384E+00     0.161606853707240E+00     0.165697950686413E+00
    0.169892614278690E+00     0.174193466285366E+00     0.178603194878948E+00     0.183124556283356E+00
    0.187760376496652E+00     0.192513553057377E+00     0.197387056855611E+00     0.202383933989873E+00
    0.207507307671034E+00     0.212760380174426E+00     0.218146434841365E+00     0.223668838131349E+00
    0.229331041726203E+00     0.235136584687494E+00     0.241089095668561E+00     0.247192295182536E+00
    0.253449997927792E+00     0.259866115172251E+00     0.266444657198051E+00     0.273189735808110E+00
    0.280105566896129E+00     0.287196473081668E+00     0.294466886411922E+00     0.301921351131892E+00
    0.309564526524695E+00     0.317401189823755E+00     0.325436239198741E+00     0.333674696817074E+00
    0.342121711982950E+00     0.350782564355823E+00     0.359662667250358E+00     0.368767571019939E+00
    0.378102966525809E+00     0.387674688694054E+00     0.397488720162615E+00     0.407551195020632E+00
    0.417868402642455E+00     0.428446791618699E+00     0.439292973786831E+00     0.450413728363779E+00
    0.461816006183166E+00     0.473506934039803E+00     0.485493819144174E+00     0.497784153689673E+00
    0.510385619535478E+00     0.523306093007954E+00     0.536553649823619E+00     0.550136570136726E+00
    0.564063343714633E+00     0.578342675244181E+00     0.592983489772408E+00     0.607994938284993E+00
    0.623386403425920E+00     0.639167505361937E+00     0.655348107795474E+00     0.671938324129772E+00
    0.688948523790100E+00     0.706389338704974E+00     0.724271669951462E+00     0.742606694568713E+00
    0.761405872543967E+00     0.780680953975426E+00     0.800443986416440E+00     0.820707322405626E+00
    0.841483627187606E+00     0.862785886629193E+00     0.884627415335988E+00     0.907021864974433E+00
    0.929983232804552E+00     0.953525870428698E+00     0.977664492761761E+00     0.100241418722848E+01
    0.102779042319357E+01     0.105380906163056E+01     0.108048636503548E+01     0.110783900759135E+01
    0.113588408559019E+01     0.116463912811869E+01     0.119412210801448E+01     0.122435145309975E+01
    0.125534605769923E+01     0.128712529444975E+01     0.131970902640879E+01     0.135311761946950E+01
    0.138737195509010E+01     0.142249344334542E+01     0.145850403630892E+01     0.149542624177345E+01
    0.153328313731933E+01     0.157209838473865E+01     0.161189624482457E+01     0.165270159253517E+01
    0.169453993254112E+01     0.173743741516685E+01     0.178142085273546E+01     0.182651773632718E+01
    0.187275625296231E+01     0.192016530321893E+01     0.196877451929675E+01     0.201861428353817E+01
    0.206971574741827E+01     0.212211085101547E+01     0.217583234297513E+01     0.223091380097849E+01
    0.228738965272988E+01     0.234529519747506E+01     0.240466662806451E+01     0.246554105357503E+01
    0.252795652250421E+01     0.259195204655192E+01     0.265756762500392E+01     0.272484426973272E+01
    0.279382403083130E+01     0.286455002289584E+01     0.293706645197371E+01     0.301141864319368E+01
    0.308765306909564E+01     0.316581737867742E+01     0.324596042717697E+01     0.332813230660848E+01
    0.341238437707151E+01     0.349876929885276E+01     0.358734106534039E+01     0.367815503677172E+01
    0.377126797483512E+01     0.386673807814799E+01     0.396462501863271E+01     0.406498997881356E+01
    0.416789569005783E+01     0.427340647178488E+01     0.438158827166799E+01     0.449250870685369E+01
    0.460623710622474E+01     0.472284455373292E+01     0.484240393282880E+01     0.496498997201633E+01
    0.509067929156051E+01     0.521955045137758E+01     0.535168400013754E+01     0.548716252560967E+01
    0.562607070628261E+01     0.576849536429112E+01     0.591452551968276E+01     0.606425244605834E+01
    0.621776972762086E+01     0.637517331766873E+01     0.653656159856964E+01     0.670203544325279E+01
    0.687169827825773E+01     0.704565614837932E+01     0.722401778294923E+01     0.740689466379520E+01
    0.759440109492093E+01     0.778665427394972E+01     0.798377436537680E+01     0.818588457567616E+01
    0.839311123030847E+01     0.860558385267867E+01     0.882343524509231E+01     0.904680157176130E+01
    0.927582244391104E+01     0.951064100704185E+01     0.975140403039969E+01     0.999826199871167E+01
    0.102513692062439E+02     0.105108838532403E+02     0.107769681448034E+02     0.110497883922770E+02
    0.113295151171970E+02     0.116163231578721E+02     0.119103917786644E+02     0.122119047820344E+02
    0.125210506234245E+02     0.128380225290490E+02     0.131630186166671E+02     0.134962420194134E+02
    0.138379010127617E+02     0.141882091447049E+02     0.145473853692289E+02     0.149156541831662E+02
    0.152932457665138E+02     0.156803961263028E+02     0.160773472441109E+02     0.164843472273087E+02
    0.169016504641346E+02     0.173295177826959E+02     0.177682166139951E+02     0.182180211590825E+02
    0.186792125604413E+02     0.191520790777103E+02     0.196369162678559E+02     0.201340271699048E+02
    0.206437224943531E+02     0.211663208173705E+02     0.217021487799209E+02     0.222515412919237E+02
    0.228148417415831E+02     0.233924022100170E+02     0.239845836913195E+02     0.245917563181935E+02
    0.252142995932959E+02     0.258526026264393E+02     0.265070643777978E+02     0.271780939072705E+02
    0.278661106301573E+02     0.285715445793068E+02     0.292948366739011E+02     0.300364389950443E+02
    0.307968150683286E+02     0.315764401535518E+02     0.323758015417714E+02     0.331953988598763E+02
    0.340357443828706E+02     0.348973633540616E+02     0.357807943133545E+02     0.366865894338568E+02
    0.376153148670051E+02     0.385675510964277E+02     0.395438933007659E+02     0.405449517256799E+02
    0.415713520652726E+02     0.426237358531685E+02     0.437027608634929E+02     0.448091015220025E+02
    0.459434493276234E+02     0.471065132846601E+02     0.482990203459469E+02     0.495217158672164E+02
    0.507753640729715E+02     0.520607485341505E+02     0.533786726578845E+02     0.547299601896529E+02
    0.561154557281511E+02     0.575360252531925E+02     0.589925566669737E+02     0.604859603490423E+02
</PP_R>
<PP_RAB columns='4'>
    0.286181857636472E-04     0.293426585854444E-04     0.300854715240421E-04     0.308470888617075E-04
    0.316279866340694E-04     0.324286529276559E-04     0.332495881849643E-04     0.340913055172543E-04
    0.349543310252587E-04     0.358392041280139E-04     0.367464779000142E-04     0.376767194169013E-04
    0.386305101099053E-04     0.396084461292577E-04     0.406111387168052E-04     0.416392145880554E-04
    0.426933163238946E-04     0.437741027722216E-04     0.448822494597491E-04     0.460184490142301E-04
    0.471834115973727E-04     0.483778653487139E-04     0.496025568407312E-04     0.508582515454741E-04
    0.521457343130095E-04     0.534658098619782E-04     0.548193032825704E-04     0.562070605522338E-04
    0.576299490644375E-04     0.590888581708205E-04     0.605846997370656E-04     0.621184087128458E-04
    0.636909437161972E-04     0.653032876326874E-04     0.669564482297503E-04     0.686514587865741E-04
    0.703893787399341E-04     0.721712943463752E-04     0.739983193611577E-04     0.758715957343906E-04
    0.777922943247874E-04     0.797616156314913E-04     0.817807905444256E-04     0.838510811136408E-04
    0.859737813381363E-04     0.881502179746521E-04     0.903817513669351E-04     0.926697762959980E-04
    0.950157228519031E-04     0.974210573276148E-04     0.998872831354806E-04     0.102415941746913E-03
    0.105008613655859E-03     0.107666919366660E-03     0.110392520406921E-03     0.113187120366018E-03
    0.116052465959897E-03     0.118990348122829E-03     0.122002603126802E-03     0.125091113729251E-03
    0.128257810349842E-03     0.131504672277047E-03     0.134833728905266E-03     0.138247061003261E-03
    0.141746802014707E-03     0.145335139391662E-03     0.149014315961796E-03     0.152786631330234E-03
    0.156654443316881E-03     0.160620169430135E-03     0.164686288377913E-03     0.168855341616921E-03
    0.173129934941147E-03     0.177512740110568E-03     0.182006496521089E-03     0.186614012916749E-03
    0.191338169145284E-03     0.196181917958121E-03     0.201148286855944E-03     0.206240379980985E-03
    0.211461380057207E-03     0.216814550379618E-03     0.222303236853927E-03     0.227930870087855E-03
    0.233700967535367E-03     0.239617135695201E-03     0.245683072365043E-03     0.251902568952776E-03
    0.258279512846229E-03     0.264817889842922E-03     0.271521786641320E-03     0.278395393395154E-03
    0.285443006332398E-03     0.292669030440558E-03     0.300077982219928E-03     0.307674492506553E-03
    0.315463309366649E-03     0.323449301064301E-03     0.331637459104286E-03     0.340032901351926E-03
    0.348640875231922E-03     0.357466761008160E-03     0.366516075146559E-03     0.375794473763035E-03
    0.385307756158760E-03     0.395061868444916E-03     0.405062907259206E-03     0.415317123576448E-03
    0.425830926615645E-03     0.436610887845949E-03     0.447663745094047E-03     0.458996406755520E-03
    0.470615956112816E-03     0.482529655762531E-03     0.494744952154771E-03     0.507269480247421E-03
    0.520111068278249E-03     0.533277742657803E-03     0.546777732986180E-03     0.560619477196799E-03
    0.574811626830379E-03     0.589363052442433E-03     0.604282849147658E-03     0.619580342304677E-03
    0.635265093344686E-03     0.651346905747669E-03     0.667835831169886E-03     0.684742175726483E-03
    0.702076506433159E-03     0.719849657810884E-03     0.738072738657836E-03     0.756757138992754E-03
    0.775914537174078E-03     0.795556907199296E-03     0.815696526189088E-03     0.836345982060922E-03
    0.857518181396917E-03     0.879226357510868E-03     0.901484078719511E-03     0.924305256823149E-03
    0.947704155800990E-03     0.971695400726594E-03     0.996293986909021E-03     0.102151528926539E-02
    0.104737507193069E-02     0.107388949811089E-02     0.110107514018549E-02     0.112894899006574E-02
    0.115752846981518E-02     0.118683144253901E-02     0.121687622354907E-02     0.124768159181153E-02
    0.127926680168435E-02     0.131165159495189E-02     0.134485621316415E-02     0.137890141028843E-02
    0.141380846568119E-02     0.144959919738836E-02     0.148629597578237E-02     0.152392173754427E-02
    0.156250000000000E-02     0.160205487581942E-02     0.164261108808754E-02     0.168419398575724E-02
    0.172682955949320E-02     0.177054445791692E-02     0.181536600426294E-02     0.186132221345681E-02
    0.190844180962527E-02     0.195675424404979E-02     0.200628971357460E-02     0.205707917948066E-02
    0.210915438683750E-02     0.216254788434492E-02     0.221729304467697E-02     0.227342408534094E-02
    0.233097609006449E-02     0.238998503072403E-02     0.245048778982839E-02     0.251252218357154E-02
    0.257612698546895E-02     0.264134195059233E-02     0.270820784041781E-02     0.277676644830319E-02
    0.284706062561017E-02     0.291913430848785E-02     0.299303254533421E-02     0.306880152495289E-02
    0.314648860542262E-02     0.322614234369764E-02     0.330781252595730E-02     0.339155019872413E-02
    0.347740770076948E-02     0.356543869582704E-02     0.365569820613436E-02     0.374824264682359E-02
    0.384312986118274E-02     0.394041915680961E-02     0.404017134268101E-02     0.414244876716033E-02
    0.424731535696726E-02     0.435483665713414E-02     0.446507987197370E-02     0.457811390708391E-02
    0.469400941241630E-02     0.481283882643442E-02     0.493467642139026E-02     0.505959834974682E-02
    0.518768269177586E-02     0.531900950436066E-02     0.545366087103413E-02     0.559172095328372E-02
    0.573327604315507E-02     0.587841461718736E-02     0.602722739171403E-02     0.617980737956340E-02
    0.633624994819481E-02     0.649665287930627E-02     0.666111642995128E-02     0.682974339520275E-02
    0.700263917240323E-02     0.717991182704170E-02     0.736167216029804E-02     0.754803377829731E-02
    0.773911316311737E-02     0.793502974559388E-02     0.813590597996851E-02     0.834186742042684E-02
    0.855304279957375E-02     0.876956410889556E-02     0.899156668125895E-02     0.921918927549847E-02
    0.945257416314523E-02     0.969186721735135E-02     0.993721800406537E-02     0.101887798755158E-01
    0.104467100660614E-01     0.107111697904675E-01     0.109823243446708E-01     0.112603432090945E-01
    0.115454001545791E-01     0.118376733509951E-01     0.121373454786043E-01     0.124446038422418E-01
    0.127596404883870E-01     0.130826523251988E-01     0.134138412455905E-01     0.137534142534181E-01
    0.141015835928658E-01     0.144585668811045E-01     0.148245872443102E-01     0.151998734571248E-01
    0.155846600856480E-01     0.159791876340484E-01     0.163837026948868E-01     0.167984581032443E-01
    0.172237130947525E-01     0.176597334676244E-01     0.181067917487865E-01     0.185651673642178E-01
    0.190351468135992E-01     0.195170238493856E-01     0.200110996604110E-01     0.205176830601407E-01
    0.210370906796902E-01     0.215696471657298E-01     0.221156853833997E-01     0.226755466243608E-01
    0.232495808201138E-01     0.238381467607174E-01     0.244416123190440E-01     0.250603546807120E-01
    0.256947605798392E-01     0.263452265407641E-01     0.270121591258870E-01     0.276959751897838E-01
    0.283971021397548E-01     0.291159782029672E-01     0.298530527003620E-01     0.306087863274937E-01
    0.313836514424807E-01     0.321781323612438E-01     0.329927256602197E-01     0.338279404867376E-01
    0.346842988772526E-01     0.355623360836355E-01     0.364626009077230E-01     0.373856560443362E-01
    0.383320784329834E-01     0.393024596184662E-01     0.402974061206142E-01     0.413175398133794E-01
    0.423634983135280E-01     0.434359353791714E-01     0.445355213183864E-01     0.456629434081796E-01
    0.468189063240579E-01     0.480041325804733E-01     0.492193629824186E-01     0.504653570884542E-01
    0.517428936854567E-01     0.530527712753868E-01     0.543958085743782E-01     0.557728450244623E-01
    0.571847413182469E-01     0.586323799368766E-01     0.601166657016127E-01     0.616385263393759E-01
    0.631989130626053E-01     0.647988011637981E-01     0.664391906250981E-01     0.681211067433180E-01
    0.698456007707826E-01     0.716137505723961E-01     0.734266612993427E-01     0.752854660798419E-01
    0.771913267273909E-01     0.791454344669354E-01     0.811490106794241E-01     0.832033076652120E-01
    0.853096094267879E-01     0.874692324713190E-01     0.896835266335097E-01     0.919538759192929E-01
    0.942816993708780E-01     0.966684519536998E-01     0.991156254658177E-01     0.101624749470339E+00
    0.104197392251446E+00     0.106835161794622E+00     0.109539706791700E+00     0.112312717671342E+00
    0.115155927655619E+00     0.118071113843323E+00     0.121060098320720E+00     0.124124749300408E+00
    0.127266982289013E+00     0.130488761284439E+00     0.133792100003439E+00     0.137179063140242E+00
    0.140651767657065E+00     0.144212384107278E+00     0.147863137992069E+00     0.151606311151459E+00
    0.155444243190522E+00     0.159379332941718E+00     0.163414039964241E+00     0.167550886081320E+00
    0.171792456956443E+00     0.176141403709483E+00     0.180600444573731E+00     0.185172366594880E+00
    0.189860027373023E+00     0.194666356848743E+00     0.199594359134420E+00     0.204647114391904E+00
    0.209827780757712E+00     0.215139596316967E+00     0.220585881127308E+00     0.226170039294033E+00
    0.231895561097776E+00     0.237766025176046E+00     0.243785100759992E+00     0.249956549967792E+00
    0.256284230156096E+00     0.262772096331008E+00     0.269424203620085E+00     0.276244709806926E+00
    0.283237877929924E+00     0.290408078946803E+00     0.297759794466609E+00     0.305297619550861E+00
    0.313026265585612E+00     0.320950563226224E+00     0.329075465416679E+00     0.337406050485335E+00
    0.345947525319042E+00     0.354705228617622E+00     0.363684634230722E+00     0.372891354579155E+00
    0.382331144162844E+00     0.392009903157570E+00     0.401933681102773E+00     0.412108680682718E+00
    0.422541261603364E+00     0.433237944567397E+00     0.444205415349877E+00     0.455450528977063E+00
    0.466980314011032E+00     0.478801976942757E+00     0.490922906696397E+00     0.503350679247620E+00
    0.516093062358826E+00     0.529158020434262E+00     0.542553719498024E+00     0.556288532298092E+00
    0.570371043539576E+00     0.584810055250425E+00     0.599614592282988E+00     0.614793907954838E+00
    0.630357489832399E+00     0.646315065660982E+00     0.662676609444945E+00     0.679452347681764E+00
    0.696652765753934E+00     0.714288614482670E+00     0.732370916847527E+00     0.750910974876108E+00
    0.769920376708214E+00     0.789411003838796E+00     0.809395038544284E+00     0.829884971496908E+00
    0.850893609571765E+00     0.872434083851541E+00     0.894519857833862E+00     0.917164735846420E+00
    0.940382871675129E+00     0.964188777410693E+00     0.988597332519147E+00     0.101362379314200E+01
    0.103928380163182E+01     0.106559339632921E+01     0.109256902158732E+01     0.112022753805006E+01
    0.114858623319058E+01     0.117766283211650E+01     0.120747550864867E+01     0.123804289668041E+01
    0.126938410182429E+01     0.130151871335376E+01     0.133446681644711E+01     0.136824900474132E+01
    0.140288639320378E+01     0.143840063132981E+01     0.147481391667434E+01     0.151214900872606E+01
</PP_RAB>
</PP_MESH>
 
 
  <PP_LOCAL columns='4'>
   -0.362490486223006E+01    -0.362492401802339E+01    -0.362494415283237E+01    -0.362496531670875E+01
   -0.362498756257368E+01    -0.362501094557265E+01    -0.362503552440436E+01    -0.362506136002748E+01
   -0.362508851687691E+01    -0.362511706264221E+01    -0.362514706876440E+01    -0.362517860937088E+01
   -0.362521176333578E+01    -0.362524661378540E+01    -0.362528324672366E+01    -0.362532175402384E+01
   -0.362536223151738E+01    -0.362540477996454E+01    -0.362544950546661E+01    -0.362549651917565E+01
   -0.362554593879057E+01    -0.362559788645899E+01    -0.362565249197314E+01    -0.362570989116338E+01
   -0.362577022717407E+01    -0.362583365048488E+01    -0.362590031780459E+01    -0.362597039574893E+01
   -0.362604405857859E+01    -0.362612148898908E+01    -0.362620287977569E+01    -0.362628843373968E+01
   -0.362637836214173E+01    -0.362647288927056E+01    -0.362657224974429E+01    -0.362667668989332E+01
   -0.362678646913670E+01    -0.362690185924833E+01    -0.362702314683508E+01    -0.362715063223035E+01
   -0.362728463132081E+01    -0.362742547531139E+01    -0.362757351406203E+01    -0.362772911192686E+01
   -0.362789265477955E+01    -0.362806454597327E+01    -0.362824521059586E+01    -0.362843509401019E+01
   -0.362863466453155E+01    -0.362884441355445E+01    -0.362906485813292E+01    -0.362929654003175E+01
   -0.362954002867791E+01    -0.362979592261737E+01    -0.363006484965139E+01    -0.363034746837341E+01
   -0.363064447160088E+01    -0.363095658527718E+01    -0.363128457266018E+01    -0.363162923351424E+01
   -0.363199140864349E+01    -0.363237197920804E+01    -0.363277187015411E+01    -0.363319205272402E+01
   -0.363363354477539E+01    -0.363409741477148E+01    -0.363458478339195E+01    -0.363509682566783E+01
   -0.363563477390247E+01    -0.363619992015919E+01    -0.363679361877466E+01    -0.363741729024639E+01
   -0.363807242262882E+01    -0.363876057451630E+01    -0.363948338088147E+01    -0.364024255202476E+01
   -0.364103988125699E+01    -0.364187724497795E+01    -0.364275660769051E+01    -0.364368002668958E+01
   -0.364464965305076E+01    -0.364566773885856E+01    -0.364673663814514E+01    -0.364785881308470E+01
   -0.364903683736180E+01    -0.365027339948643E+01    -0.365157130947522E+01    -0.365293350005349E+01
   -0.365436303424692E+01    -0.365586310688167E+01    -0.365743705203706E+01    -0.365908834383607E+01
   -0.366082060491635E+01    -0.366263760772679E+01    -0.366454327961194E+01    -0.366654170773461E+01
   -0.366863714243404E+01    -0.367083400120085E+01    -0.367313687262024E+01    -0.367555051802503E+01
   -0.367807987707263E+01    -0.368073006965779E+01    -0.368350639557891E+01    -0.368641433915002E+01
   -0.368945956947522E+01    -0.369264793867810E+01    -0.369598548530823E+01    -0.369947842828232E+01
   -0.370313316874084E+01    -0.370695628370609E+01    -0.371095452175441E+01    -0.371513479796540E+01
   -0.371950418440642E+01    -0.372406990202064E+01    -0.372883930942442E+01    -0.373381988731315E+01
   -0.373901922539542E+01    -0.374444500273149E+01    -0.375010496603428E+01    -0.375600690869003E+01
   -0.376215864129880E+01    -0.376856796303993E+01    -0.377524262659118E+01    -0.378219030213656E+01
   -0.378941853474413E+01    -0.379693469823397E+01    -0.380474594611302E+01    -0.381285915516019E+01
   -0.382128086593464E+01    -0.383001721859126E+01    -0.383907388161776E+01    -0.384845597681202E+01
   -0.385816799888233E+01    -0.386821372864804E+01    -0.387859614082190E+01    -0.388931730963845E+01
   -0.390037830460315E+01    -0.391177908565853E+01    -0.392351839205239E+01    -0.393559362781928E+01
   -0.394800074425655E+01    -0.396073411949623E+01    -0.397378643817645E+01    -0.398714856794753E+01
   -0.400080943998057E+01    -0.401475592956774E+01    -0.402897273988611E+01    -0.404344229537557E+01
   -0.405814463860454E+01    -0.407305733655800E+01    -0.408815540313127E+01    -0.410341123108612E+01
   -0.411879454325423E+01    -0.413427236422844E+01    -0.414980900934863E+01    -0.416536610538929E+01
   -0.418090263308534E+01    -0.419637500110977E+01    -0.421173715512042E+01    -0.422694071734985E+01
   -0.424193516582969E+01    -0.425666805108127E+01    -0.427108525111431E+01    -0.428513126807334E+01
   -0.429874956269971E+01    -0.431188293070364E+01    -0.432447391417023E+01    -0.433646525059797E+01
   -0.434780035248684E+01    -0.435842381669891E+01    -0.436828195576536E+01    -0.437732334617460E+01
   -0.438549938770380E+01    -0.439276486483314E+01    -0.439907849960593E+01    -0.440440349158032E+01
   -0.440870803053015E+01    -0.441196577317813E+01    -0.441415627384871E+01    -0.441526535936650E+01
   -0.441528543624870E+01    -0.441421572450719E+01    -0.441206240656224E+01    -0.440883868749843E+01
   -0.440456475965903E+01    -0.439926767022465E+01    -0.439298108976716E+01    -0.438574498388680E+01
   -0.437760519176392E+01    -0.436861291763416E+01    -0.435882414524669E+01    -0.434829898519066E+01
   -0.433710096810177E+01    -0.432529629994444E+01    -0.431295309293111E+01    -0.430014059067400E+01
   -0.428692840381532E+01    -0.427338577098750E+01    -0.425958086381642E+01    -0.424558014761560E+01
   -0.423144781165086E+01    -0.421724527985406E+01    -0.420303080925655E+01    -0.418885918391083E+01
   -0.417478150661135E+01    -0.416084509057674E+01    -0.414709345034877E+01    -0.413356638991230E+01
   -0.412030018325786E+01    -0.410732784358009E+01    -0.409467947434456E+01    -0.408238269667646E+01