<UPF version="2.0.1">
 
<PP_INFO>
    Generated with atom program version:      atom 6.1.0
    https://github.com/jlm785/pseudopotential
    Author: Froyen,Troullier,Martins et al.
    Generation date:  18-Apr-26 
    Pseudopotential type:     Improved Troullier - Martinskb-loc=-1 
    Element: Mo
    Functional: ca
    Suggested minimum cutoff for wavefunctions:    0.0000 Ry
    Suggested minimum cutoff for charge density:    0.0000 Ry
    The Pseudo was generated with a Relativistic Calculation
    Local component is maximum of all potentials (smoothed)
    Valence configuration:
    nl         occ            Rcut
    5s         1.0000         2.3500
    5p         0.0000         2.6400
    4d         5.0000         2.2400
    UPF generation configuration: not available
</PP_INFO>
 
<!--
END OF HUMAN READABLE SECTION
 -->
 
<PP_HEADER
  generated='Generated by atom version atom 6.1.0'
  author='Froyen,Troullier,Martins et al.'
  date='18-Apr-26 '
  comment='using beta code, beware'
  element='Mo'
  pseudo_type='NC'
  relativistic='full'
  is_ultrasoft='F'
  is_paw='F'
  is_coulomb='F'
  has_so='T'
  has_wfc='F'
  has_gipaw='F'
  paw_as_gipaw='F'
  core_correction='F'
  functional=' SLA  PZ   NOGX NOGC'
  z_valence=' 0.600000000000000E+01'
  total_psenergy=' 0.000000000000000E+00'
  wfc_cutoff=' 0.000000000000000E+00'
  rho_cutoff=' 0.000000000000000E+00'
  l_max=' 2'
  l_max_rho='0'
  l_local='-1'
  mesh_size='   475'
  number_of_wfc=' 5'
  number_of_proj=' 5'
/>
 
<PP_MESH
  dx=' 0.250000000000000E-01'
  mesh='   475'
  xmin=' 0.400000000000000E+01'
  rmax=' 0.610889123055905E+02'
  zmesh=' 0.420000000000000E+02'
>
<PP_R columns='4'>
    0.436086640207957E-03     0.447126226063914E-03     0.458445280366355E-03     0.470050877892685E-03
    0.481950272519152E-03     0.494150901754756E-03     0.506660391389933E-03     0.519486560262923E-03
    0.532637425146800E-03     0.546121205760212E-03     0.559946329904979E-03     0.574121438733735E-03
    0.588655392150938E-03     0.603557274350594E-03     0.618836399494175E-03     0.634502317532273E-03
    0.650564820173632E-03     0.667033947005281E-03     0.683919991767605E-03     0.701233508788269E-03
    0.718985319579012E-03     0.737186519599450E-03     0.755848485192094E-03     0.774982880692939E-03
    0.794601665722050E-03     0.814717102658715E-03     0.835341764305834E-03     0.856488541748325E-03
    0.878170652410476E-03     0.900401648317264E-03     0.923195424564810E-03     0.946566228005269E-03
    0.970528666151577E-03     0.995097716307617E-03     0.102028873492953E-02     0.104611746722399E-02
    0.107260005698947E-02     0.109975305670667E-02     0.112759343788431E-02     0.115613860166690E-02
    0.118540638971105E-02     0.121541509533701E-02     0.124618347496268E-02     0.127773075982691E-02
    0.131007666800970E-02     0.134324141675660E-02     0.137724573511520E-02     0.141211087689140E-02
    0.144785863393376E-02     0.148451134975413E-02     0.152209193349304E-02     0.156062387423867E-02
    0.160013125570833E-02     0.164063877130149E-02     0.168217173953404E-02     0.172475611986313E-02
    0.176841852891271E-02     0.181318625710977E-02     0.185908728574174E-02     0.190615030444573E-02
    0.195440472914045E-02     0.200388072041215E-02     0.205460920236596E-02     0.210662188195446E-02
    0.215995126879554E-02     0.221463069549199E-02     0.227069433846547E-02     0.232817723931786E-02
    0.238711532673342E-02     0.244754543893539E-02     0.250950534671106E-02     0.257303377701974E-02
    0.263817043719843E-02     0.270495603978009E-02     0.277343232794040E-02     0.284364210158856E-02
    0.291562924411862E-02     0.298943874983803E-02     0.306511675209058E-02     0.314271055209120E-02
    0.322226864849078E-02     0.330384076768941E-02     0.338747789491699E-02     0.347323230610065E-02
    0.356115760053893E-02     0.365130873440306E-02     0.374374205508637E-02     0.383851533642326E-02
    0.393568781479968E-02     0.403532022617786E-02     0.413747484405822E-02     0.424221551840234E-02
    0.434960771554130E-02     0.445971855909422E-02     0.457261687192272E-02     0.468837321914748E-02
    0.480705995225370E-02     0.492875125431316E-02     0.505352318635103E-02     0.518145373488650E-02
    0.531262286067690E-02     0.544711254869577E-02     0.558500685937614E-02     0.572639198115100E-02
    0.587135628432396E-02     0.601999037630349E-02     0.617238715823551E-02     0.632864188306968E-02
    0.648885221509554E-02     0.665311829098589E-02     0.682154278238548E-02     0.699423096008412E-02
    0.717129075981434E-02     0.735283284971476E-02     0.753897069950127E-02     0.772982065138928E-02
    0.792550199281142E-02     0.812613703097604E-02     0.833185116931322E-02     0.854277298585599E-02
    0.875903431360577E-02     0.898077032293231E-02     0.920811960605955E-02     0.944122426369031E-02
    0.968022999382379E-02     0.992528618282163E-02     0.101765459987792E-01     0.104341664872607E-01
    0.106983086694577E-01     0.109691376428325E-01     0.112468226843099E-01     0.115315373560801E-01
    0.118234596140812E-01     0.121227719192274E-01     0.124296613514528E-01     0.127443197266426E-01
    0.130669437165244E-01     0.133977349715942E-01     0.137369002471544E-01     0.140846515325432E-01
    0.144412061836341E-01     0.148067870586910E-01     0.151816226576613E-01     0.155659472649964E-01
    0.159600010960867E-01     0.163640304474041E-01     0.167782878504456E-01     0.172030322295732E-01
    0.176385290638504E-01     0.180850505529754E-01     0.185428757874144E-01     0.190122909228423E-01
    0.194935893589996E-01     0.199870719230764E-01     0.204930470577395E-01     0.210118310139189E-01
    0.215437480484752E-01     0.220891306268703E-01     0.226483196309694E-01     0.232216645721032E-01
    0.238095238095238E-01     0.244122647743912E-01     0.250302641994291E-01     0.256639083543960E-01
    0.263135932875154E-01     0.269797250730197E-01     0.276627200649591E-01     0.283630051574371E-01
    0.290810180514326E-01     0.298172075283777E-01     0.305720337306605E-01     0.313459684492291E-01
    0.321394954184763E-01     0.329531106185893E-01     0.337873225855538E-01     0.346426527290048E-01
    0.355196356581255E-01     0.364188195157947E-01     0.373407663211945E-01     0.382860523210901E-01
    0.392552683500031E-01     0.402490201995022E-01     0.412679289968427E-01     0.423126315931914E-01
    0.433837809616788E-01     0.444820466055291E-01     0.456081149765213E-01     0.467626899040440E-01
    0.479464930350114E-01     0.491602642849164E-01     0.504047623003018E-01     0.516807649329391E-01
    0.529890697260112E-01     0.543304944126025E-01     0.557058774268093E-01     0.571160784277880E-01
    0.585619788370703E-01     0.600444823894798E-01     0.615645156979964E-01     0.631230288329192E-01
    0.647209959156916E-01     0.663594157277584E-01     0.680393123348373E-01     0.697617357269929E-01
    0.715277624749151E-01     0.733384964028103E-01     0.751950692783278E-01     0.770986415199515E-01
    0.790504029222988E-01     0.810515733997814E-01     0.831034037490915E-01     0.852071764309900E-01
    0.873642063718868E-01     0.895758417857122E-01     0.918434650165947E-01     0.941684934028709E-01
    0.965523801629685E-01     0.989966153037145E-01     0.101502726551639E+00     0.104072280307851E+00
    0.106706882627097E+00     0.109408180221588E+00     0.112177861490256E+00     0.115017657574054E+00
    0.117929343437979E+00     0.120914738980478E+00     0.123975710170949E+00     0.127114170216028E+00
    0.130332080755410E+00     0.133631453087932E+00     0.137014349428708E+00     0.140482884198072E+00
    0.144039225343165E+00     0.147685595692973E+00     0.151424274347663E+00     0.155257598103098E+00
    0.159187962911411E+00     0.163217825378552E+00     0.167349704299745E+00     0.171586182233821E+00
    0.175929907117396E+00     0.180383593919925E+00     0.184950026340638E+00     0.189632058548447E+00
    0.194432616965897E+00     0.199354702098268E+00     0.204401390408998E+00     0.209575836242562E+00
    0.214881273796051E+00     0.220321019140640E+00     0.225898472294251E+00     0.231617119346664E+00
    0.237480534638446E+00     0.243492382995024E+00     0.249656422017323E+00     0.255976504430389E+00
    0.262456580491467E+00     0.269100700459038E+00     0.275913017124366E+00     0.282897788407129E+00
    0.290059380016749E+00     0.297402268181115E+00     0.304931042444358E+00     0.312650408535477E+00
    0.320565191309564E+00     0.328680337763502E+00     0.337000920127995E+00     0.345532139037879E+00
    0.354279326782687E+00     0.363247950639504E+00     0.372443616290195E+00     0.381872071325135E+00
    0.391539208835644E+00     0.401451071097358E+00     0.411613853346849E+00     0.422033907653849E+00
    0.432717746891502E+00     0.443672048807119E+00     0.454903660195992E+00     0.466419601180857E+00
    0.478227069599706E+00     0.490333445504668E+00     0.502746295774777E+00     0.515473378845525E+00
    0.528522649558134E+00     0.541902264131589E+00     0.555620585260541E+00     0.569686187342265E+00
    0.584107861835937E+00     0.598894622757580E+00     0.614055712314120E+00     0.629600606680067E+00
    0.645539021920426E+00     0.661880920063563E+00     0.678636515327793E+00     0.695816280505594E+00
    0.713430953509453E+00     0.731491544083403E+00     0.750009340684475E+00     0.768995917538350E+00
    0.788463141873626E+00     0.808423181339227E+00     0.828888511609573E+00     0.849871924182283E+00
    0.871386534373286E+00     0.893445789514310E+00     0.916063477357908E+00     0.939253734695251E+00
    0.963031056192081E+00     0.987410303448352E+00     0.101240671428721E+01     0.103803591227913E+01
    0.106431391650716E+01     0.109125715157937E+01     0.111888245789475E+01     0.114720710216902E+01
    0.117624878822691E+01     0.120602566806759E+01     0.123655635321027E+01     0.126785992632704E+01
    0.129995595317010E+01     0.133286449480105E+01     0.136660612012967E+01     0.140120191877018E+01
    0.143667351422290E+01     0.147304307738971E+01     0.151033334043151E+01     0.154856761097660E+01
    0.158776978668870E+01     0.162796437020376E+01     0.166917648444495E+01     0.171143188832522E+01
    0.175475699284752E+01     0.179917887761254E+01     0.184472530774431E+01     0.189142475124432E+01
    0.193930639678496E+01     0.198840017195336E+01     0.203873676195716E+01     0.209034762880369E+01
    0.214326503096480E+01     0.219752204353947E+01     0.225315257892677E+01     0.231019140802222E+01
    0.236867418195080E+01     0.242863745434999E+01     0.249011870421701E+01     0.255315635933439E+01
    0.261778982028866E+01     0.268405948509688E+01     0.275200677445685E+01     0.282167415763627E+01
    0.289310517901750E+01     0.296634448531418E+01     0.304143785347688E+01     0.311843221930520E+01
    0.319737570678418E+01     0.327831765816330E+01     0.336130866479707E+01     0.344640059876621E+01
    0.353364664529944E+01     0.362310133601594E+01     0.371482058300941E+01     0.380886171379492E+01
    0.390528350714052E+01     0.400414622980584E+01     0.410551167421082E+01     0.420944319705792E+01
    0.431600575893217E+01     0.442526596490367E+01     0.453729210615786E+01     0.465215420267978E+01
    0.476992404701885E+01     0.489067524916151E+01     0.501448328253987E+01     0.514142553120510E+01
    0.527158133819493E+01     0.540503205512567E+01     0.554186109303958E+01     0.568215397453951E+01
    0.582599838724334E+01     0.597348423859154E+01     0.612470371204226E+01     0.627975132468903E+01
    0.643872398633698E+01     0.660172106007462E+01     0.676884442437907E+01     0.694019853679334E+01
    0.711589049921573E+01     0.729603012484201E+01     0.748073000680224E+01     0.767010558853516E+01
    0.786427523594402E+01     0.806336031137923E+01     0.826748524949369E+01     0.847677763501855E+01
    0.869136828250783E+01     0.891139131810172E+01     0.913698426335982E+01     0.936828812121658E+01
    0.960544746411274E+01     0.984861052435783E+01     0.100979292867801E+02     0.103535595837221E+02
    0.106156611924409E+02     0.108843979349740E+02     0.111599377805337E+02     0.114424529504931E+02
    0.117321200260299E+02     0.120291200584959E+02     0.123336386825796E+02     0.126458662323338E+02
    0.129659978601412E+02     0.132942336586901E+02     0.136307787860398E+02     0.139758435938502E+02
    0.143296437588591E+02     0.146924004176868E+02     0.150643403050537E+02     0.154456958954971E+02
    0.158367055486753E+02     0.162376136583499E+02     0.166486708051401E+02     0.170701339131438E+02
    0.175022664105232E+02     0.179453383941562E+02     0.183996267984560E+02     0.188654155684634E+02
    0.193429958373225E+02     0.198326661082478E+02     0.203347324410988E+02     0.208495086436773E+02
    0.213773164678671E+02     0.219184858107400E+02     0.224733549207519E+02     0.230422706091590E+02
    0.236255884667863E+02     0.242236730862836E+02     0.248368982900072E+02     0.254656473636718E+02
    0.261103132959157E+02     0.267712990239324E+02     0.274490176853188E+02     0.281438928762998E+02
    0.288563589164900E+02     0.295868611203570E+02     0.303358560755584E+02     0.311038119283229E+02
    0.318912086760576E+02     0.326985384673617E+02     0.335263059096356E+02     0.343750283844769E+02
    0.352452363710606E+02     0.361374737777060E+02     0.370522982818370E+02     0.379902816785488E+02
    0.389520102379983E+02     0.399380850718420E+02     0.409491225089506E+02     0.419857544806343E+02
    0.430486289156205E+02     0.441384101450309E+02     0.452557793176091E+02     0.464014348254613E+02
    0.475760927405743E+02     0.487804872623833E+02     0.500153711766709E+02     0.512815163260824E+02
    0.525797140925526E+02     0.539107758919456E+02     0.552755336812156E+02     0.566748404784078E+02
    0.581095708958215E+02     0.595806216866720E+02     0.610889123055905E+02
</PP_R>
<PP_RAB columns='4'>
    0.109021660051989E-04     0.111781556515979E-04     0.114611320091589E-04     0.117512719473171E-04
    0.120487568129788E-04     0.123537725438689E-04     0.126665097847483E-04     0.129871640065731E-04
    0.133159356286700E-04     0.136530301440053E-04     0.139986582476245E-04     0.143530359683434E-04
    0.147163848037734E-04     0.150889318587648E-04     0.154709099873544E-04     0.158625579383068E-04
    0.162641205043408E-04     0.166758486751320E-04     0.170979997941901E-04     0.175308377197067E-04
    0.179746329894753E-04     0.184296629899862E-04     0.188962121298023E-04     0.193745720173235E-04
    0.198650416430512E-04     0.203679275664679E-04     0.208835441076459E-04     0.214122135437081E-04
    0.219542663102619E-04     0.225100412079316E-04     0.230798856141202E-04     0.236641557001317E-04
    0.242632166537894E-04     0.248774429076904E-04     0.255072183732382E-04     0.261529366805997E-04
    0.268150014247368E-04     0.274938264176667E-04     0.281898359471077E-04     0.289034650416726E-04
    0.296351597427762E-04     0.303853773834252E-04     0.311545868740669E-04     0.319432689956727E-04
    0.327519167002424E-04     0.335810354189151E-04     0.344311433778800E-04     0.353027719222850E-04
    0.361964658483440E-04     0.371127837438532E-04     0.380522983373259E-04     0.390155968559669E-04
    0.400032813927082E-04     0.410159692825372E-04     0.420542934883510E-04     0.431189029965783E-04
    0.442104632228178E-04     0.453296564277442E-04     0.464771821435436E-04     0.476537576111432E-04
    0.488601182285112E-04     0.500970180103038E-04     0.513652300591491E-04     0.526655470488615E-04
    0.539987817198884E-04     0.553657673872997E-04     0.567673584616367E-04     0.582044309829465E-04
    0.596778831683356E-04     0.611886359733848E-04     0.627376336677764E-04     0.643258444254936E-04
    0.659542609299606E-04     0.676239009945022E-04     0.693358081985101E-04     0.710910525397141E-04
    0.728907311029654E-04     0.747359687459507E-04     0.766279188022644E-04     0.785677638022799E-04
    0.805567162122695E-04     0.825960191922353E-04     0.846869473729248E-04     0.868308076525163E-04
    0.890289400134733E-04     0.912827183600765E-04     0.935935513771593E-04     0.959628834105814E-04
    0.983921953699920E-04     0.100883005654446E-03     0.103436871101455E-03     0.106055387960059E-03
    0.108740192888533E-03     0.111492963977355E-03     0.114315421798068E-03     0.117209330478687E-03
    0.120176498806343E-03     0.123218781357829E-03     0.126338079658776E-03     0.129536343372162E-03
    0.132815571516923E-03     0.136177813717394E-03     0.139625171484403E-03     0.143159799528775E-03
    0.146783907108099E-03     0.150499759407587E-03     0.154309678955888E-03     0.158216047076742E-03
    0.162221305377389E-03     0.166327957274647E-03     0.170538569559637E-03     0.174855774002103E-03
    0.179282268995358E-03     0.183820821242869E-03     0.188474267487532E-03     0.193245516284732E-03
    0.198137549820286E-03     0.203153425774401E-03     0.208296279232831E-03     0.213569324646400E-03
    0.218975857840144E-03     0.224519258073308E-03     0.230202990151489E-03     0.236030606592258E-03
    0.242005749845595E-03     0.248132154570541E-03     0.254413649969480E-03     0.260854162181517E-03
    0.267457716736441E-03     0.274228441070813E-03     0.281170567107747E-03     0.288288433902002E-03
    0.295586490352030E-03     0.303069297980684E-03     0.310741533786319E-03     0.318607993166066E-03
    0.326673592913111E-03     0.334943374289855E-03     0.343422506178861E-03     0.352116288313580E-03
    0.361030154590853E-03     0.370169676467274E-03     0.379540566441532E-03     0.389148681624909E-03
    0.399000027402166E-03     0.409100761185103E-03     0.419457196261139E-03     0.430075805739329E-03
    0.440963226596261E-03     0.452126263824386E-03     0.463571894685360E-03     0.475307273071058E-03
    0.487339733974989E-03     0.499676798076909E-03     0.512326176443487E-03     0.525295775347973E-03
    0.538593701211881E-03     0.552228265671758E-03     0.566207990774235E-03     0.580541614302579E-03
    0.595238095238095E-03     0.610306619359779E-03     0.625756604985728E-03     0.641597708859900E-03
    0.657839832187886E-03     0.674493126825492E-03     0.691568001623978E-03     0.709075128935927E-03
    0.727025451285816E-03     0.745430188209444E-03     0.764300843266513E-03     0.783649211230728E-03
    0.803487385461906E-03     0.823827765464733E-03     0.844683064638844E-03     0.866066318225120E-03
    0.887990891453138E-03     0.910470487894868E-03     0.933519158029863E-03     0.957151308027252E-03
    0.981381708750076E-03     0.100622550498755E-02     0.103169822492107E-02     0.105781578982979E-02
    0.108459452404197E-02     0.111205116513823E-02     0.114020287441303E-02     0.116906724760110E-02
    0.119866232587528E-02     0.122900660712291E-02     0.126011905750754E-02     0.129201912332348E-02
    0.132472674315028E-02     0.135826236031506E-02     0.139264693567023E-02     0.142790196069470E-02
    0.146404947092676E-02     0.150111205973699E-02     0.153911289244991E-02     0.157807572082298E-02
    0.161802489789229E-02     0.165898539319396E-02     0.170098280837093E-02     0.174404339317482E-02
    0.178819406187288E-02     0.183346241007026E-02     0.187987673195820E-02     0.192746603799879E-02
    0.197626007305747E-02     0.202628933499454E-02     0.207758509372729E-02     0.213017941077475E-02
    0.218410515929717E-02     0.223939604464280E-02     0.229608662541487E-02     0.235421233507177E-02
    0.241380950407421E-02     0.247491538259286E-02     0.253756816379096E-02     0.260180700769629E-02
    0.266767206567742E-02     0.273520450553970E-02     0.280444653725640E-02     0.287544143935136E-02
    0.294823358594948E-02     0.302286847451195E-02     0.309939275427372E-02     0.317785425540070E-02
    0.325830201888524E-02     0.334078632719831E-02     0.342535873571770E-02     0.351207210495180E-02
    0.360098063357914E-02     0.369213989232433E-02     0.378560685869157E-02     0.388143995257745E-02
    0.397969907278528E-02     0.408044563446380E-02     0.418374260749363E-02     0.428965455584552E-02
    0.439824767793491E-02     0.450958984799812E-02     0.462375065851594E-02     0.474080146371118E-02
    0.486081542414741E-02     0.498386755245670E-02     0.511003476022494E-02     0.523939590606406E-02
    0.537203184490126E-02     0.550802547851601E-02     0.564746180735627E-02     0.579042798366660E-02
    0.593701336596115E-02     0.608730957487560E-02     0.624141055043308E-02     0.639941261075973E-02
    0.656141451228667E-02     0.672751751147595E-02     0.689782542810916E-02     0.707244471017822E-02
    0.725148450041874E-02     0.743505670452787E-02     0.762327606110895E-02     0.781626021338692E-02
    0.801412978273911E-02     0.821700844408756E-02     0.842502300319989E-02     0.863830347594698E-02
    0.885698316956716E-02     0.908119876598760E-02     0.931109040725486E-02     0.954680178312838E-02
    0.978848022089111E-02     0.100362767774340E-01     0.102903463336712E-01     0.105508476913462E-01
    0.108179436722875E-01     0.110918012201780E-01     0.113725915048998E-01     0.116604900295214E-01
    0.119556767399927E-01     0.122583361376167E-01     0.125686573943694E-01     0.128868344711381E-01
    0.132130662389534E-01     0.135475566032897E-01     0.138905146315135E-01     0.142421546835566E-01
    0.146026965458984E-01     0.149723655689395E-01     0.153513928078530E-01     0.157400151670017E-01
    0.161384755480107E-01     0.165470230015891E-01     0.169659128831948E-01     0.173954070126398E-01
    0.178357738377363E-01     0.182872886020851E-01     0.187502335171119E-01     0.192248979384587E-01
    0.197115785468407E-01     0.202105795334807E-01     0.207222127902393E-01     0.212467981045571E-01
    0.217846633593322E-01     0.223361447378577E-01     0.229015869339477E-01     0.234813433673813E-01
    0.240757764048020E-01     0.246852575862088E-01     0.253101678571802E-01     0.259508978069783E-01
    0.266078479126791E-01     0.272814287894842E-01     0.279720614473686E-01     0.286801775542255E-01
    0.294062197056727E-01     0.301506417016897E-01     0.309139088302568E-01     0.316964981581760E-01
    0.324988988292525E-01     0.333216123700263E-01     0.341651530032418E-01     0.350300479692544E-01
    0.359168378555726E-01     0.368260769347428E-01     0.377583335107877E-01     0.387141902744149E-01
    0.396942446672174E-01     0.406991092550941E-01     0.417294121111237E-01     0.427857972081304E-01
    0.438689248211880E-01     0.449794719403135E-01     0.461181326936076E-01     0.472856187811079E-01
    0.484826599196239E-01     0.497100042988341E-01     0.509684190489290E-01     0.522586907200921E-01
    0.535816257741201E-01     0.549380510884868E-01     0.563288144731691E-01     0.577547852005556E-01
    0.592168545487701E-01     0.607159363587498E-01     0.622529676054251E-01     0.638289089833599E-01
    0.654447455072164E-01     0.671014871274221E-01     0.688001693614212E-01     0.705418539409067E-01
    0.723276294754375E-01     0.741586121328544E-01     0.760359463369219E-01     0.779608054826301E-01
    0.799343926696045E-01     0.819579414540826E-01     0.840327166199268E-01     0.861600149691553E-01
    0.883411661324861E-01     0.905775334003986E-01     0.928705145752352E-01     0.952215428448730E-01
    0.976320876785129E-01     0.100103655745146E+00     0.102637791855270E+00     0.105236079926448E+00
    0.107900143973304E+00     0.110631649122592E+00     0.113432302653946E+00     0.116303855066995E+00
    0.119248101175471E+00     0.122266881229038E+00     0.125362082063497E+00     0.128535638280127E+00
    0.131789533454873E+00     0.135125801378142E+00     0.138546527325989E+00     0.142053849363488E+00
    0.145649959681084E+00     0.149337105964788E+00     0.153117592801057E+00     0.156993783117226E+00
    0.160968099658424E+00     0.165043026501865E+00     0.169221110609477E+00     0.173504963419833E+00
    0.177897262480393E+00     0.182400753121050E+00     0.187018250170056E+00     0.191752639713379E+00
    0.196606880898601E+00     0.201584007784481E+00     0.206687131237342E+00     0.211919440875464E+00
    0.217284207062696E+00     0.222784782952543E+00     0.228424606583995E+00     0.234207203030415E+00
    0.240136186602819E+00     0.246215263108946E+00     0.252448232169503E+00     0.258838989593053E+00
    0.265391529811022E+00     0.272109948374350E+00     0.278998444513343E+00     0.286061323762327E+00
    0.293303000650748E+00     0.300728001462399E+00     0.308340967064489E+00     0.316146655808346E+00
    0.324149946503529E+00     0.332355841467254E+00     0.340769469650995E+00     0.349396089846255E+00
    0.358241093971478E+00     0.367310010442169E+00     0.376608507626342E+00     0.386142397387428E+00
    0.395917638716882E+00     0.405940341458747E+00     0.416216770128504E+00     0.426753347828595E+00
    0.437556660263080E+00     0.448633459853906E+00     0.459990669961399E+00     0.471635389211585E+00
    0.483574895933062E+00     0.495816652706196E+00     0.508368311027471E+00     0.521237716091932E+00
    0.534432911696678E+00     0.547962145268501E+00     0.561833873018798E+00     0.576056765228974E+00
    0.590639711669659E+00     0.605591827157090E+00     0.620922457250181E+00     0.636641184091794E+00
    0.652757832397892E+00     0.669282475598310E+00     0.686225442132969E+00     0.703597321907495E+00
    0.721408972912249E+00     0.739671528008926E+00     0.758396401888961E+00     0.777595298208073E+00
    0.797280216901440E+00     0.817463461684043E+00     0.838157647740890E+00     0.859375709611923E+00
    0.881130909276516E+00     0.903436844442651E+00     0.926307457045926E+00     0.949757041963720E+00
    0.973800255949957E+00     0.998452126796050E+00     0.102372806272376E+01     0.104964386201586E+01
    0.107621572289051E+01     0.110346025362577E+01     0.113139448294023E+01     0.116003587063653E+01
    0.118940231851436E+01     0.121951218155958E+01     0.125038427941677E+01     0.128203790815206E+01
    0.131449285231382E+01     0.134776939729864E+01     0.138188834203039E+01     0.141687101196019E+01
    0.145273927239554E+01     0.148951554216680E+01     0.152722280763976E+01
</PP_RAB>
</PP_MESH>
 
 
  <PP_LOCAL columns='4'>
   -0.695299080141548E+01    -0.695299080138811E+01    -0.695299080137894E+01    -0.695299080134446E+01
   -0.695299080131538E+01    -0.695299080128113E+01    -0.695299080127351E+01    -0.695299080122073E+01
   -0.695299080119171E+01    -0.695299080116098E+01    -0.695299080112986E+01    -0.695299080108763E+01
   -0.695299080105225E+01    -0.695299080101613E+01    -0.695299080097229E+01    -0.695299080092134E+01
   -0.695299080087506E+01    -0.695299080081200E+01    -0.695299080076074E+01    -0.695299080071542E+01
   -0.695299080065183E+01    -0.695299080057971E+01    -0.695299080052372E+01    -0.695299080044764E+01
   -0.695299080037694E+01    -0.695299080030482E+01    -0.695299080021926E+01    -0.695299080013506E+01
   -0.695299080004463E+01    -0.695299079995132E+01    -0.695299079985619E+01    -0.695299079975223E+01
   -0.695299079964126E+01    -0.695299079951275E+01    -0.695299079939239E+01    -0.695299079923026E+01
   -0.695299079914507E+01    -0.695299079896615E+01    -0.695299079884278E+01    -0.695299079866541E+01
   -0.695299079853446E+01    -0.695299079830839E+01    -0.695299079813735E+01    -0.695299079795201E+01
   -0.695299079771059E+01    -0.695299079752009E+01    -0.695299079727997E+01    -0.695299079704787E+01
   -0.695299079677746E+01    -0.695299079647081E+01    -0.695299079617987E+01    -0.695299079588077E+01
   -0.695299079558016E+01    -0.695299079520878E+01    -0.695299079484668E+01    -0.695299079445168E+01
   -0.695299079402960E+01    -0.695299079361964E+01    -0.695299079319089E+01    -0.695299079269008E+01
   -0.695299079215452E+01    -0.695299079163504E+01    -0.695299079104633E+01    -0.695299079040090E+01
   -0.695299078977395E+01    -0.695299078906757E+01    -0.695299078832076E+01    -0.695299078751715E+01
   -0.695299078669552E+01    -0.695299078582882E+01    -0.695299078488013E+01    -0.695299078386563E+01
   -0.695299078280308E+01    -0.695299078167856E+01    -0.695299078044746E+01    -0.695299077913834E+01
   -0.695299077776704E+01    -0.695299077626547E+01    -0.695299077467879E+01    -0.695299077298605E+01
   -0.695299077117249E+01    -0.695299076925631E+01    -0.695299076715365E+01    -0.695299076492790E+01
   -0.695299076254522E+01    -0.695299075996820E+01    -0.695299075721157E+01    -0.695299075425618E+01
   -0.695299075105783E+01    -0.695299074764595E+01    -0.695299074394378E+01    -0.695299073996512E+01
   -0.695299073570911E+01    -0.695299073107519E+01    -0.695299072609697E+01    -0.695299072071485E+01
   -0.695299071489614E+01    -0.695299070860496E+01    -0.695299070180608E+01    -0.695299069444552E+01
   -0.695299068647536E+01    -0.695299067782811E+01    -0.695299066845911E+01    -0.695299065829377E+01
   -0.695299064724681E+01    -0.695299063525313E+01    -0.695299062220819E+01    -0.695299060802954E+01
   -0.695299059260135E+01    -0.695299057580579E+01    -0.695299055749987E+01    -0.695299053756155E+01
   -0.695299051582167E+01    -0.695299049208930E+01    -0.695299046620831E+01    -0.695299043793588E+01
   -0.695299040706096E+01    -0.695299037330354E+01    -0.695299033640441E+01    -0.695299029603734E+01
   -0.695299025187890E+01    -0.695299020352619E+01    -0.695299015059066E+01    -0.695299009258112E+01
   -0.695299002901855E+01    -0.695298995933013E+01    -0.695298988293071E+01    -0.695298979906369E+01
   -0.695298970707481E+01    -0.695298960614762E+01    -0.695298949530474E+01    -0.695298937348557E+01
   -0.695298923973782E+01    -0.695298909277762E+01    -0.695298893123311E+01    -0.695298875367016E+01